                               Psi4 1.9a1.dev12

  ==> Input File <==

--------------------------------------------------------------------------
import os

set reference rhf

import numpy as np
import pickle
import math
import time

print(os.environ["SGE_TASK_ID"])

angle_param = np.linspace(0, 72, 10)[int(os.environ["SGE_TASK_ID"]) - 1]
alpha = angle_param / 180 * math.pi

mgcp = geometry(f"""
    0 1
    symmetry c1
    units angstrom

    C
    C 1 dcc
    C 2 dcc 1 108
    C 3 dcc 2 108 1 0
    C 4 dcc 3 108 2 0
    C 1 drr 2 90  3 90
    C 2 drr 3 90  4 90
    C 3 drr 4 90  5 90
    C 8 dcc 7 108 6 0
    C 9 dcc 8 108 7 0
    H 1 dch 2 126 3 180
    H 2 dch 3 126 4 180
    H 3 dch 4 126 5 180
    H 4 dch 5 126 1 180
    H 5 dch 1 126 2 180
    H 6 dch 7 126 8 180
    H 7 dch 8 126 9 180
    H 8 dch 9 126 10 180
    H 9 dch 10 126 6 180
    H 10 dch 6 126 7 180
    Mg 1 dcbe 11 achbe 6 0
    Mg 6 dcbe 16 achbe 1 0

    dcc = 1.33
    drr = 6.12
    dch = 1.088
    dcbe = 2.23
    achbe = 128.09
""")

# Translate to the center of mass.
mgcp.move_to_com()

# Change units to Bohr. There seems to be an implicit conversion somewhere.
mgcp.set_units(psi4.core.Bohr)

# Rotate so that the heavy atoms are on the z axis.
geo = list(zip([mgcp.symbol(i) for i in range(mgcp.nallatom())], list(mgcp.geometry().to_array())))

# Find the first heavy atom.
ez = None
for atom in geo :
    if atom[0].lower() in ["be", "mg", "ca", "sr", "ba"] :
        ez = atom[1]
        break
if ez is None :
    raise ArithmeticError("Could not find heavy atom!")

# Normalize.
ez = ez / np.linalg.norm(ez)

# Find the other two directions.
ex = np.array([1, 0, 0]) - np.dot(np.array([1, 0, 0]), ez) * ez
if np.linalg.norm(ex) < 1e-6 :
    ex = np.array([0, 0, 1]) - np.dot(np.array([0, 0, 1]), ez) * ez
ex = ex / np.linalg.norm(ex)

ey = np.array([0, 1, 0]) - np.dot(np.array([0, 1, 0]), ex) * ex - np.dot(np.array([0, 1, 0]), ez) * ez

if np.linalg.norm(ey) < 1e-6 :
    ey = np.array([1, 0, 0]) - np.dot(np.array([1, 0, 0]), ex) * ex - np.dot(np.array([1, 0, 0]), ez) * ez
    if np.linalg.norm(ey) < 1e-6 :
        ey = np.array([0, 0, 1]) - np.dot(np.array([0, 0, 1]), ex) * ex - np.dot(np.array([0, 0, 1]), ez) * ez
ey = ey / np.linalg.norm(ey)

# Make sure the coordinates are right-handed.
if np.dot(np.cross(ex, ey), ez) < 0 :
    ex, ey = ey, ex

positions = []
# Go through and rotate.
for i in range(mgcp.nallatom()) :
    vector = geo[i][1]
    positions.append(np.array([np.dot(ex, vector), np.dot(ey, vector), np.dot(ez, vector)]))

# Rotate all atoms with a postitive z.
rot = np.array([[math.cos(alpha), -math.sin(alpha), 0], [math.sin(alpha), math.cos(alpha), 0], [0, 0, 1]])
for i in range(len(positions)) :
    if positions[i].item(2) > 0 :
        positions[i] = np.matmul(rot, positions[i])

# Generate new geometry.
geostr = "0 1\nsymmetry c1\nunits angstrom\n"

for i in range(len(positions)) :
    geostr += f"{mgcp.symbol(i)} {positions[i].item(0)} {positions[i].item(1)} {positions[i].item(2)}\n"

# Set new geometry.
mgcp = geometry(geostr)

set optking {
    frozen_dihedral = ("
        1 21 22 6
        2 21 22 7
        3 21 22 8
        4 21 22 9
        5 21 22 10
    ")
}

energy = optimize("mp2/cc-pVDZ")

mgcp.save_xyz_file("out/structs/dimgce_angle-" + str(os.environ["SGE_TASK_ID"]) + ".xyz", True)

fstr = ""
with open("out/structs/dimgce_angle-" + str(os.environ["SGE_TASK_ID"]) + ".xyz", "r") as fp :
    for line in fp :
        if len(line) == 0 :
            continue
        newline = line[0]
        for i in range(1, len(line)) :
            if line[i - 1].isupper() and line[i].isupper() :
                newline += line[i].lower()
            else :
                newline += line[i]
        fstr += newline
with open("out/structs/dimgce_angle-" + str(os.environ["SGE_TASK_ID"]) + ".xyz", "w") as fp :
    print(fstr, file = fp)

while os.path.isfile("out/lock.dimgce_angle_energies.dat") :
    time.sleep(0.03)
with open("out/lock.dimgce_angle_energies.dat", "w+") as _ :
    with open("out/dimgce_angle_energies.dat", "ba+") as fp :
        fp.write(pickle.dumps(angle_param))
        fp.write(pickle.dumps(energy))
os.remove("out/lock.dimgce_angle_energies.dat")

while os.path.isfile("out/lock.dimgce_angle_energies.txt") :
    time.sleep(0.03)

with open("out/lock.dimgce_angle_energies.txt", "w+") as _ :
    with open("out/dimgce_angle_energies.txt", "a+") as fp :
        print(f"Distance: {angle_param}, Energy: {energy}", file = fp)
os.remove("out/lock.dimgce_angle_energies.txt")
--------------------------------------------------------------------------

    Molecular point group: c1
  Charge       = 0
  Multiplicity = 1
  Basis Set: CC-PVDZ
    Blend: CC-PVDZ
  Basis Set: (CC-PVDZ AUX)
    Blend: CC-PVDZ-JKFIT + DEF2-UNIVERSAL-JKFIT
  @DF-RHF Final Energy:  -783.62254168056620
    Total Energy =                       -783.6225416805662007
 Dipole X            :          0.6466469           -0.5717084            0.0749385
 Dipole Y            :         -0.2372794            0.1910228           -0.0462566
 Dipole Z            :          0.1059839           -0.0829471            0.0230368
 Magnitude           :                                                    0.0910283
  Basis Set: (CC-PVDZ AUX)
    Blend: CC-PVDZ-RI
    Molecular point group: c1
  Basis Set: CC-PVDZ
    Blend: CC-PVDZ
  Basis Set: (CC-PVDZ AUX)
    Blend: CC-PVDZ-JKFIT + DEF2-UNIVERSAL-JKFIT
  Basis Set: (CC-PVDZ AUX)
    Blend: CC-PVDZ-JKFIT + DEF2-UNIVERSAL-JKFIT
	 Reference Energy          =    -783.6225416805662007 [Eh]
	 Singles Energy            =      -0.0000000000000000 [Eh]
	 Same-Spin Energy          =      -0.3859425332355608 [Eh]
	 Opposite-Spin Energy      =      -1.0429605511872646 [Eh]
	 Correlation Energy        =      -1.4289030844228254 [Eh]
	 Total Energy              =    -785.0514447649890144 [Eh]
	 SCS Total Energy          =    -785.0027418530694376 [Eh]
  @DF-RHF Final Energy:  -783.71180052726424
    Total Energy =                       -783.7118005272640175
  @DF-RHF Final Energy:  -783.74120204857491
    Total Energy =                       -783.7412020485750190
  @DF-RHF Final Energy:  -783.75387451125061
    Total Energy =                       -783.7538745112505012
  @DF-RHF Final Energy:  -783.76255641835269
    Total Energy =                       -783.7625564183525739
  @DF-RHF Final Energy:  -783.76713392662873
    Total Energy =                       -783.7671339266287305
  @DF-RHF Final Energy:  -783.76862792405325
    Total Energy =                       -783.7686279240532485
  @DF-RHF Final Energy:  -783.76902298943401
    Total Energy =                       -783.7690229894340064
  @DF-RHF Final Energy:  -783.76908918439619
    Total Energy =                       -783.7690891843964209
  @DF-RHF Final Energy:  -783.76905393879235
    Total Energy =                       -783.7690539387921262
  @DF-RHF Final Energy:  -783.76905076287858
    Total Energy =                       -783.7690507628784644
  @DF-RHF Final Energy:  -783.76910649603610
    Total Energy =                       -783.7691064960362155
  @DF-RHF Final Energy:  -783.76914719572380
    Total Energy =                       -783.7691471957236899
  @DF-RHF Final Energy:  -783.76916219582120
    Total Energy =                       -783.7691621958209680
  @DF-RHF Final Energy:  -783.76914701454655
    Total Energy =                       -783.7691470145464336
  @DF-RHF Final Energy:  -783.76913517258686
    Total Energy =                       -783.7691351725869708
    Final optimized geometry and variables:
*** Psi4 exiting successfully. Buy a developer a beer!
  @DF-RHF Final Energy:  -783.73703240041607
    Total Energy =                       -783.7370324004161830
  @DF-RHF Final Energy:  -783.76642753365320
    Total Energy =                       -783.7664275336534274
  @DF-RHF Final Energy:  -783.76933302204566
    Total Energy =                       -783.7693330220455437
  @DF-RHF Final Energy:  -783.76931387615286
    Total Energy =                       -783.7693138761528644
  @DF-RHF Final Energy:  -783.76930417017297
    Total Energy =                       -783.7693041701728589
  @DF-RHF Final Energy:  -783.76930554591684
    Total Energy =                       -783.7693055459169500
  @DF-RHF Final Energy:  -783.76932761134378
    Total Energy =                       -783.7693276113438969
  @DF-RHF Final Energy:  -783.76965604416966
    Total Energy =                       -783.7696560441695510
  @DF-RHF Final Energy:  -783.76964755014274
    Total Energy =                       -783.7696475501426221
  Charge       = 0
  Multiplicity = 1
  Basis Set: CC-PVDZ
    Blend: CC-PVDZ
  Basis Set: (CC-PVDZ AUX)
    Blend: CC-PVDZ-JKFIT + DEF2-UNIVERSAL-JKFIT

    Orbital Energies [Eh]
    ---------------------

    Doubly Occupied:

       1A    -49.009516     2A    -49.009488     3A    -11.235206
       4A    -11.235162     5A    -11.234646     6A    -11.234609
       7A    -11.234247     8A    -11.234084     9A    -11.233456
      10A    -11.233402    11A    -11.233047    12A    -11.232805
      13A     -3.750886    14A     -3.750798    15A     -2.270750
      16A     -2.270273    17A     -2.270264    18A     -2.270056
      19A     -2.270042    20A     -2.269508    21A     -1.158914
      22A     -1.158845    23A     -0.951692    24A     -0.951586
      25A     -0.949350    26A     -0.949263    27A     -0.731367
      28A     -0.731285    29A     -0.731008    30A     -0.730990
      31A     -0.695111    32A     -0.695092    33A     -0.543513
      34A     -0.543342    35A     -0.541258    36A     -0.541138
      37A     -0.535250    38A     -0.532093    39A     -0.516275
      40A     -0.516162    41A     -0.516016    42A     -0.515959
      43A     -0.315262    44A     -0.314345    45A     -0.312843
      46A     -0.311942    47A     -0.268297

  @DF-RHF Final Energy:  -783.76964788327950

   => Energetics <=

    Nuclear Repulsion Energy =            681.7540338022522519
    One-Electron Energy =               -2433.5664813602734284
    Two-Electron Energy =                 968.0427996747417865
    Total Energy =                       -783.7696478832793900
 Dipole X            :          0.3875825           -0.3218093            0.0657732
 Dipole Y            :         -0.3573561            0.2970054           -0.0603507
 Dipole Z            :          0.0678241           -0.0559562            0.0118679
 Magnitude           :                                                    0.0900509
  Basis Set: (CC-PVDZ AUX)
    Blend: CC-PVDZ-RI
    Molecular point group: c1
  Basis Set: CC-PVDZ
    Blend: CC-PVDZ
  Basis Set: (CC-PVDZ AUX)
    Blend: CC-PVDZ-JKFIT + DEF2-UNIVERSAL-JKFIT
  Basis Set: (CC-PVDZ AUX)
    Blend: CC-PVDZ-JKFIT + DEF2-UNIVERSAL-JKFIT
	 Reference Energy          =    -783.7696478832795037 [Eh]
	 Singles Energy            =      -0.0000000000000000 [Eh]
	 Same-Spin Energy          =      -0.3853309944827910 [Eh]
	 Opposite-Spin Energy      =      -1.0631390940238501 [Eh]
	 Correlation Energy        =      -1.4484700885066411 [Eh]
	 Total Energy              =    -785.2181179717861141 [Eh]

	 ================> DF-SCS-MP2 Energies <==================
	-----------------------------------------------------------
	 SCS Same-Spin Scale       =       0.3333333333333333 [-]
	 SCS Opposite-Spin Scale   =       1.2000000000000000 [-]
	 SCS Same-Spin Energy      =      -0.1284436648275970 [Eh]
	 SCS Opposite-Spin Energy  =      -1.2757669128286200 [Eh]
	 SCS Correlation Energy    =      -1.4042105776562170 [Eh]
	 SCS Total Energy          =    -785.1738584609357758 [Eh]
	-----------------------------------------------------------

  -Total Gradient:
     Atom            X                  Y                   Z
    ------   -----------------  -----------------  -----------------
       1        0.002919886946     0.002824166025    -0.000364466048
       2        0.001294645460    -0.003740835291     0.000512061674
       3       -0.002082576998     0.000376208059    -0.000096074351
       4       -0.000070473668    -0.000206076344    -0.000014558208
       5       -0.002560758428     0.000930602219    -0.000110209800
       6       -0.004376557443     0.000139054572    -0.000061278671
       7        0.001631314153     0.003988482482    -0.000532093983
       8        0.001470093250    -0.001532458278     0.000254177419
       9        0.000080493935     0.000120444519    -0.000047887823
      10        0.001007338228    -0.002270044231     0.000379753109
      11       -0.000014902109    -0.000016294931    -0.000001145809
      12       -0.000028886145     0.000071290774    -0.000033164099
      13        0.000001784153     0.000004938526     0.000013427783
      14       -0.000014601306    -0.000046316006     0.000019964806
      15        0.000041696269    -0.000026403082     0.000031737280
      16        0.000007054271     0.000001763863     0.000032083289
      17        0.000000311111    -0.000001434384    -0.000042570158
      18       -0.000001134199     0.000003556158    -0.000014657784
      19        0.000078527068     0.000059537953    -0.000009935677
      20       -0.000004416434     0.000014899133    -0.000013986379
      21        0.001309061856     0.000073822693     0.000043362668
      22       -0.000687899967    -0.000768904425     0.000055460769

    Final optimized geometry and variables:
    Molecular point group: c1

    Geometry (in Angstrom), charge = 0, multiplicity = 1:

    C           -0.957426782931     1.349305649491     3.144438231407
    C           -1.312776675083    -0.028547010921     3.327991123518
    C           -0.118198295777    -0.760126137149     3.603969060018
    C            0.978444394702     0.161606585309     3.589516154322
    C            0.455870058373     1.466069140944     3.307696885741
    C            0.121427979392     0.838300533768    -3.481034662418
    C           -1.032012182249     0.000027464939    -3.445676184528
    C           -0.588986100572    -1.361769202064    -3.354238951301
    C            0.841958944107    -1.360223466054    -3.336516432233
    C            1.282141342513    -0.001738120214    -3.413187692652
    H           -1.651510704303     2.168312178043     2.946082742159
    H           -2.324134030639    -0.438182364938     3.292416779732
    H           -0.054274100768    -1.827979975681     3.822386406555
    H            2.021791688203    -0.079663736192     3.802550808537
    H            1.034707917297     2.390719071803     3.261800214713
    H            0.123323043664     1.926070360489    -3.574050603345
    H           -2.070267323247     0.331470656172    -3.510865110495
    H           -1.230628354321    -2.245103607648    -3.344280061254
    H            1.485146462009    -2.241988516596    -3.306775647648
    H            2.319866027660     0.335649038424    -3.449422457183
    MG           0.079464392787     0.101020530416     1.396199134959
    MG           0.099954702617    -0.265984467838    -1.365132385730

*** Psi4 exiting successfully. Buy a developer a beer!
