                               Psi4 1.9a1.dev12

  ==> Input File <==

--------------------------------------------------------------------------
import math
import numpy as np

set reference rhf
memory 24 GB

molecule becp {
    0 1
    symmetry c1
 C    3.377399750010    1.005299840306   -0.715185929445
 C    3.377399750010    1.005299840306    0.714919056084
 C    3.377399750010   -0.361319760570    1.159124401200
 C    3.390217478973   -1.203593400818   -0.000150796093
 C    3.377501579575   -0.361327617107   -1.159390293293
 C   -3.379114096785    0.983443906080   -0.709034482617
 C   -3.378090724724    0.975630555007    0.720940359424
 C   -3.375970314681   -0.393220300942    1.157837055866
 C   -3.388280390436   -1.229408264092   -0.006067305615
 C   -3.377484778658   -0.380532412265   -1.160862185454
 H    3.380382258851    1.887259973554   -1.355464041013
 H    3.380278347944    1.887253613574    1.355203055297
 H    3.403359001494   -0.697868556790    2.195802326198
 H    3.388394307631   -2.293198696819   -0.000162316421
 H    3.403320802715   -0.697888275343   -2.196065203192
 H   -3.383146443284    1.869020106024   -1.344241724439
 H   -3.381403082708    1.854207788654    1.365802611069
 H   -3.402384292469   -0.735631203398    2.192581255016
 H   -3.387693056954   -2.319014549841   -0.012021120459
 H   -3.405471702937   -0.711646347065   -2.199238285099
Mg    1.369964752424    0.003027515210   -0.000016450616
Mg   -1.370277208974   -0.023879134755   -0.001080310946
 H   -0.009924855328    1.250833306130    0.002076248921
 H    0.010079893083   -1.276599718054   -0.003531297116
}

set CACHELEVEL 1
set PRINT 2

E, wfn = optimize("ccsd/cc-pVDZ", return_wfn = True)

becp.save_xyz_file("out/dimagnesocene_h2.xyz", True)

fstr = ""
with open("out/dimagnesocene_h2.xyz", "r") as fp :
    for line in fp :
        newline = line[0]
        for i in range(1, len(line)) :
            if line[i - 1].isupper() and line[i].isupper() :
                newline += line[i].lower()
            else :
                newline += line[i]
        fstr += newline

with open("out/dimagnesocene_h2.xyz", "w") as fp :
    print(fstr, file = fp)

wfn.to_file("out/dimagnesocene_h2.wf")
try:
    fchk(wfn, "out/dimagnesocene_h2.fchk")
except Exception :
    E, wfn = energy("hf/6-311g", return_wfn = True)
    fchk(wfn, "out/dimagnesocene_h2.fchk")
--------------------------------------------------------------------------

    Molecular point group: c1
  Charge       = 0
  Multiplicity = 1
  @RHF Final Energy:  -784.91902680145938
    Total Energy =                       -784.9190268014596086
 Dipole X            :          0.0001110           -0.0039501           -0.0038390
 Dipole Y            :         -0.0218798            0.0153868           -0.0064931
 Dipole Z            :         -0.0013027            0.0006796           -0.0006231
 Magnitude           :                                                    0.0075688
      * MP2 total energy                      = -786.394398959751584
      * CCSD total energy                     = -786.462843046286253
    Molecular point group: c1
  @RHF Final Energy:  -784.91990248335765
    Total Energy =                       -784.9199024833577596
      * MP2 total energy                      = -786.394558450146633
      * CCSD total energy                     = -786.463081308833011
  @RHF Final Energy:  -784.92031869077096
    Total Energy =                       -784.9203186907709551
      * MP2 total energy                      = -786.394593433121486
      * CCSD total energy                     = -786.463154458491545
  @RHF Final Energy:  -784.92039779645825
    Total Energy =                       -784.9203977964581327
      * MP2 total energy                      = -786.394603835540124
      * CCSD total energy                     = -786.463174213959974
  @RHF Final Energy:  -784.92040865886941
    Total Energy =                       -784.9204086588695191
      * MP2 total energy                      = -786.394605052433349
      * CCSD total energy                     = -786.463177606940576
  @RHF Final Energy:  -784.92042119126904
    Total Energy =                       -784.9204211912690425
      * MP2 total energy                      = -786.394604681836427
      * CCSD total energy                     = -786.463178935052724
  Charge       = 0
  Multiplicity = 1

    Orbital Energies [Eh]
    ---------------------

    Doubly Occupied:

       1A    -49.025586     2A    -49.025582     3A    -11.235261
       4A    -11.235240     5A    -11.234934     6A    -11.234905
       7A    -11.234173     8A    -11.234111     9A    -11.233168
      10A    -11.233138    11A    -11.233085    12A    -11.233075
      13A     -3.765300    14A     -3.765171    15A     -2.287355
      16A     -2.287270    17A     -2.287111    18A     -2.285892
      19A     -2.285416    20A     -2.285115    21A     -1.160202
      22A     -1.160182    23A     -0.952034    24A     -0.952018
      25A     -0.950851    26A     -0.950828    27A     -0.731743
      28A     -0.731706    29A     -0.731691    30A     -0.731645
      31A     -0.695710    32A     -0.695698    33A     -0.548716
      34A     -0.543313    35A     -0.543295    36A     -0.542484
      37A     -0.542428    38A     -0.534160    39A     -0.516612
      40A     -0.516604    41A     -0.516560    42A     -0.516545
      43A     -0.474916    44A     -0.390919    45A     -0.316803
      46A     -0.315981    47A     -0.315220    48A     -0.303426

  @RHF Final Energy:  -784.92043586179693

   => Energetics <=

    Nuclear Repulsion Energy =            717.2285880526671917
    One-Electron Energy =               -2505.2516946735458987
    Two-Electron Energy =                1003.1026707590817750
    Total Energy =                       -784.9204358617969319
 Dipole X            :          0.0002263           -0.0000198            0.0002065
 Dipole Y            :         -0.0186410            0.0116973           -0.0069437
 Dipole Z            :         -0.0011121            0.0005913           -0.0005208
 Magnitude           :                                                    0.0069662
      * MP2 total energy                      = -786.394603754033255
      * CCSD total energy                     = -786.463179857708610
    Molecular point group: c1

  -Total gradient:
     Atom            X                  Y                   Z
    ------   -----------------  -----------------  -----------------
       1        0.000027404335    -0.000023953827    -0.000008885820
       2        0.000027333537    -0.000023374431     0.000007004939
       3        0.000013788660     0.000031898900    -0.000035228878
       4       -0.000003189385     0.000017026721    -0.000000861318
       5        0.000013761567     0.000032234423     0.000033515643
       6       -0.000021293628     0.000011781413     0.000002536223
       7       -0.000021341502     0.000010955920     0.000000938834
       8       -0.000018338103     0.000076679605    -0.000030145276
       9       -0.000008202484     0.000053251284     0.000002166833
      10       -0.000018504473     0.000075869316     0.000033311733
      11        0.000002034482     0.000005426496    -0.000003218972
      12        0.000002033405     0.000005396447     0.000003233938
      13       -0.000004441933    -0.000002325743     0.000008618340
      14       -0.000002811664    -0.000005064752    -0.000000043127
      15       -0.000004375226    -0.000002361510    -0.000008577451
      16       -0.000000881577     0.000004967407    -0.000003614508
      17       -0.000000758614     0.000004909358     0.000003664881
      18        0.000004793941    -0.000004750081     0.000007972564
      19        0.000001636336    -0.000005128441    -0.000000036356
      20        0.000004726166    -0.000004699737    -0.000008018528
      21       -0.000151060482     0.000055439787     0.000013678249
      22        0.000162382127    -0.000389912029    -0.000018878216
      23       -0.000027157433    -0.000016596319     0.000000358077
      24        0.000022461945     0.000092329795     0.000000508194

    Final optimized geometry and variables:
    Molecular point group: c1

    Geometry (in Angstrom), charge = 0, multiplicity = 1:

    C            3.403529119879     1.001899698536    -0.713491261347
    C            3.403572288230     1.001892491507     0.713154829478
    C            3.404623281403    -0.362433868327     1.156786925953
    C            3.416910714402    -1.202337993502    -0.000202569012
    C            3.404638026670    -0.362434167742    -1.157140672685
    C           -3.406618774864     0.980287042887    -0.707312849578
    C           -3.405722564893     0.972501953004     0.719145185750
    C           -3.403009907755    -0.394108381265     1.155476477784
    C           -3.413683961265    -1.227886134811    -0.006073305912
    C           -3.404340929480    -0.381464481858    -1.158531750400
    H            3.420709445987     1.885623010100    -1.354942658743
    H            3.420682326030     1.885605193931     1.354619365739
    H            3.442762660973    -0.699883647784     2.195070475060
    H            3.433719519002    -2.294131820675    -0.000213832164
    H            3.442639446222    -0.699874481098    -2.195430548631
    H           -3.425350941738     1.867458336639    -1.343919448190
    H           -3.423794258375     1.852678398519     1.365411790497
    H           -3.439830983259    -0.737340018887     2.191912865595
    H           -3.428996440887    -2.319701714703    -0.012014546478
    H           -3.442597296032    -0.713364948434    -2.198603050106
    MG           1.377993426057     0.005072469017    -0.000075118624
    MG          -1.377941119938    -0.018571473241    -0.000858046846
    H           -0.008775337596     1.258772182933     0.002184924348
    H            0.008809958654    -1.273159442145    -0.003430490528

*** Psi4 exiting successfully. Buy a developer a beer!
