                               Psi4 1.9a1.dev12

  ==> Input File <==

--------------------------------------------------------------------------
import math
import numpy as np

set reference rhf

memory 24 GB

molecule becp {
    0 1
    symmetry c1

C      3.44218    0.97477   -0.72451
C      3.44695    0.97174    0.70595
C      3.44384   -0.38965    1.14512
C      3.43715   -1.22800   -0.01392
C      3.43612   -0.38474   -1.16941
C     -3.44384    0.39044   -1.14483
C     -3.43714    1.22879    0.01421
C     -3.43612    0.38554    1.16971
C     -3.44218   -0.97398    0.72480
C     -3.44695   -0.97095   -0.70566
H      3.47296    1.85929   -1.36448
H      3.48201    1.85354    1.34944
H      3.47611   -0.72932    2.18265
H      3.46341   -2.31987   -0.01632
H      3.46146   -0.72002   -2.20856
H     -3.47610    0.73011   -2.18235
H     -3.46340    2.32066    0.01661
H     -3.46146    0.72081    2.20885
H     -3.47295   -1.85850    1.36477
H     -3.48200   -1.85275   -1.34915
Mg     1.39045   -0.00428   -0.00450
Mg    -1.39045    0.00507    0.00479

}

set SCF_INITIAL_ACCELERATOR NONE
set CACHELEVEL 1
set PRINT 2

E, wfn = optimize("ccsd/cc-pVDZ", return_wfn = True)

becp.save_xyz_file("out/magnesium/dimagnesocene_d5d.xyz", True)

wfn.to_file("out/magnesium/dimagnesocene_d5d.wf")
fchk(wfn, "out/magnesium/dimagnesocene_d5d.fchk")

fstr = ""
with open("out/magnesium/dimagnesocene_d5d.xyz", "r") as fp :
    for line in fp :
        newline = line[0]
        for i in range(1, len(line)) :
            if line[i - 1].isupper() and line[i].isupper() :
                newline += line[i].lower()
            else :
                newline += line[i]
        fstr += newline

with open("out/magnesium/dimagnesocene_d5d.xyz", "w") as fp :
    print(fstr, file = fp)
--------------------------------------------------------------------------

    Molecular point group: c1
  Charge       = 0
  Multiplicity = 1

    Orbital Energies [Eh]
    ---------------------

    Doubly Occupied:

       1A    -49.010464     2A    -49.010464     3A    -11.234682
       4A    -11.234682     5A    -11.234040     6A    -11.234040
       7A    -11.234039     8A    -11.234038     9A    -11.232900
      10A    -11.232899    11A    -11.232899    12A    -11.232899
      13A     -3.751691    14A     -3.751605    15A     -2.271537
      16A     -2.271069    17A     -2.271069    18A     -2.270856
      19A     -2.270856    20A     -2.270295    21A     -1.159034
      22A     -1.159023    23A     -0.950380    24A     -0.950379
      25A     -0.950360    26A     -0.950359    27A     -0.730920
      28A     -0.730919    29A     -0.730916    30A     -0.730916
      31A     -0.694962    32A     -0.694946    33A     -0.542030
      34A     -0.542029    35A     -0.541979    36A     -0.541978
      37A     -0.535370    38A     -0.532223    39A     -0.516032
      40A     -0.516031    41A     -0.516030    42A     -0.516029
      43A     -0.314255    44A     -0.314254    45A     -0.312529
      46A     -0.312528    47A     -0.269693

  @RHF Final Energy:  -783.77106488045729

   => Energetics <=

    Nuclear Repulsion Energy =            681.0527086832803434
    One-Electron Energy =               -2432.1612890939368299
    Two-Electron Energy =                 967.3375155301991981
    Total Energy =                       -783.7710648804572884
 Dipole X            :         -0.0000268            0.0000290            0.0000023
 Dipole Y            :          0.0000068           -0.0000063            0.0000004
 Dipole Z            :         -0.0000048            0.0000025           -0.0000023
 Magnitude           :                                                    0.0000033
      * MP2 total energy                      = -785.219445795195043
      * CCSD total energy                     = -785.278644466617379
    Molecular point group: c1

  -Total gradient:
     Atom            X                  Y                   Z
    ------   -----------------  -----------------  -----------------
       1        0.000001040384     0.000015084581    -0.000012768304
       2        0.000001050343     0.000020482790     0.000011471626
       3        0.000000650694    -0.000010137969     0.000019515588
       4        0.000001705994    -0.000023863979    -0.000002104936
       5        0.000000358578    -0.000003131121    -0.000015215560
       6       -0.000002432529     0.000011936498    -0.000026877658
       7        0.000000499612     0.000022502987    -0.000000750311
       8       -0.000001903284     0.000015724369     0.000031667359
       9       -0.000001314958    -0.000022191553     0.000009417374
      10       -0.000001187876    -0.000021532193    -0.000013275533
      11       -0.000001308514    -0.000004289043     0.000002899987
      12       -0.000001480997    -0.000005450670    -0.000003964127
      13       -0.000001381236     0.000002147705    -0.000004470881
      14       -0.000001597554     0.000008116687     0.000000468457
      15       -0.000001497627     0.000001054120     0.000004326487
      16        0.000001929709    -0.000004197905     0.000011013546
      17        0.000001558400    -0.000008359560     0.000000140021
      18        0.000001647038    -0.000004349389    -0.000012196687
      19        0.000001840327     0.000004645878    -0.000002987539
      20        0.000001903016     0.000005698773     0.000004000106
      21       -0.000011046248     0.000000043358    -0.000000093797
      22        0.000010966729     0.000000065641    -0.000000215215

    Final optimized geometry and variables:
    Molecular point group: c1

    Geometry (in Angstrom), charge = 0, multiplicity = 1:

    C            3.442179099610     0.974374326026    -0.724655730578
    C            3.446949099610     0.971344326026     0.705804269422
    C            3.443839099610    -0.390045673974     1.144974269422
    C            3.437149099610    -1.228395673974    -0.014065730578
    C            3.436119099610    -0.385135673974    -1.169555730578
    C           -3.443840900390     0.390044326026    -1.144975730578
    C           -3.437140900390     1.228394326026     0.014064269422
    C           -3.436120900390     0.385144326026     1.169564269422
    C           -3.442180900390    -0.974375673974     0.724654269422
    C           -3.446950900390    -0.971345673974    -0.705805730578
    H            3.472959099610     1.858894326026    -1.364625730578
    H            3.482009099610     1.853144326026     1.349294269422
    H            3.476109099610    -0.729715673974     2.182504269422
    H            3.463409099610    -2.320265673974    -0.016465730578
    H            3.461459099610    -0.720415673974    -2.208705730578
    H           -3.476100900390     0.729714326026    -2.182495730578
    H           -3.463400900390     2.320264326026     0.016464269422
    H           -3.461460900390     0.720414326026     2.208704269422
    H           -3.472950900390    -1.858895673974     1.364624269422
    H           -3.482000900390    -1.853145673974    -1.349295730578
    MG           1.390449099610    -0.004675673974    -0.004645730578
    MG          -1.390450900390     0.004674326026     0.004644269422

*** Psi4 exiting successfully. Buy a developer a beer!
