                               Psi4 1.9a1.dev12

  ==> Input File <==

--------------------------------------------------------------------------
import math

memory 24 GB
set reference uhf

molecule becp {
    1 2
    symmetry c1
            C   3.1461274348   0.9627761284  -0.7011867685
            C   3.1489696932   0.9626547900   0.7450156861
            C   3.1542006554  -0.4127492906   1.1921964573
            C   3.1540191502  -1.2624629173   0.0215870567
            C   3.1491930869  -0.4105796174  -1.1474676106
            C  -3.1505236277   1.0420558825  -0.7542045130
            C  -3.1504365386   1.0417792145   0.6920853996
            C  -3.1506410583  -0.3334340559   1.1393370766
            C  -3.1504356447  -1.1832903156  -0.0312593572
            C  -3.1505205419  -0.3315994611  -1.2003683033
            H   3.1800490148   1.8467327921  -1.3413723636
            H   3.1836047640   1.8443284709   1.3884038110
            H   3.1900815425  -0.7512232088   2.2298887013
            H   3.1896991592  -2.3539371105   0.0211174065
            H   3.1835510055  -0.7514004331  -2.1844341729
            H  -3.1884006259   1.9258805001  -1.3943530013
            H  -3.1864570071   1.9223035343   1.3369795364
            H  -3.1834409500  -0.6728489015   2.1768075848
            H  -3.1829569053  -2.2748548581  -0.0306841732
            H  -3.1860807499  -0.6744086378  -2.2366485146
           Mg   1.3572648416  -0.0588489163   0.0385254606
           Mg  -1.3571108681   0.0248567438  -0.0200584090

}

set CC_TYPE DF
set CACHELEVEL 1
set PRINT 2
E, wfn = optimize("ccsd/cc-pVDZ", return_wfn = True)

becp.save_xyz_file("out/magnesium/dimagnesocene+.xyz", True)

fstr = ""
with open("out/magnesium/dimagnesocene+.xyz", "r") as fp :
    for line in fp :
        newline = line[0]
        for i in range(1, len(line)) :
            if line[i - 1].isupper() and line[i].isupper() :
                newline += line[i].lower()
            else :
                newline += line[i]
        fstr += newline

with open("out/magnesium/dimagnesocene+.xyz", "w") as fp :
    print(fstr, file = fp)

wfn.to_file("out/magnesium/dimagnesocene+.wf")
fchk(wfn, "out/magnesium/dimagnesocene+.fchk")

--------------------------------------------------------------------------

    Molecular point group: c1
  Charge       = 1
  Multiplicity = 2
  @DF-UHF Final Energy:  -783.51956076514364
    Total Energy =                       -783.5195607651436376
 Dipole X            :          0.0007917           -0.0004730            0.0003188
 Dipole Y            :         -0.0758130            0.0485120           -0.0273010
 Dipole Z            :          0.0406303           -0.0254040            0.0152263
 Magnitude           :                                                    0.0312616
	DF-MP2 Total Energy (a.u.)         :  -784.94578124455154
    Molecular point group: c1
  @DF-UHF Final Energy:  -783.53704214081586
    Total Energy =                       -783.5370421408159700
	DF-MP2 Total Energy (a.u.)         :  -784.95868529040024
  @DF-UHF Final Energy:  -783.54769707841467
    Total Energy =                       -783.5476970784148989
	DF-MP2 Total Energy (a.u.)         :  -784.96591409091729
  @DF-UHF Final Energy:  -783.55015802311777
    Total Energy =                       -783.5501580231176604
	DF-MP2 Total Energy (a.u.)         :  -784.96728806213707
  @DF-UHF Final Energy:  -783.55041201970744
    Total Energy =                       -783.5504120197074371
	DF-MP2 Total Energy (a.u.)         :  -784.96735333954894
  @DF-UHF Final Energy:  -783.55045467681737
    Total Energy =                       -783.5504546768174805
	DF-MP2 Total Energy (a.u.)         :  -784.96735598979535
  @DF-UHF Final Energy:  -783.55046595140425
    Total Energy =                       -783.5504659514042487
	DF-MP2 Total Energy (a.u.)         :  -784.96735779849882
  @DF-UHF Final Energy:  -783.55047664804988
    Total Energy =                       -783.5504766480499939
	DF-MP2 Total Energy (a.u.)         :  -784.96735921645370
  Charge       = 1
  Multiplicity = 2

    Orbital Energies [Eh]
    ---------------------

    Alpha Occupied:

       1A    -49.214570     2A    -49.214553     3A    -11.376293
       4A    -11.376279     5A    -11.375666     6A    -11.375663
       7A    -11.375653     8A    -11.375652     9A    -11.374587
      10A    -11.374563    11A    -11.374517    12A    -11.374516
      13A     -3.956465    14A     -3.956447    15A     -2.478700
      16A     -2.478261    17A     -2.475544    18A     -2.475544
      19A     -2.475465    20A     -2.475464    21A     -1.300918
      22A     -1.300895    23A     -1.090050    24A     -1.090049
      25A     -1.090030    26A     -1.090028    27A     -0.867212
      28A     -0.867210    29A     -0.867201    30A     -0.867195
      31A     -0.831029    32A     -0.831009    33A     -0.680631
      34A     -0.679631    35A     -0.679625    36A     -0.679571
      37A     -0.679568    38A     -0.674820    39A     -0.652764
      40A     -0.652727    41A     -0.652696    42A     -0.652685
      43A     -0.510646    44A     -0.458394    45A     -0.458393
      46A     -0.456119    47A     -0.456108

    Alpha Virtual:

      48A     -0.101245    49A     -0.100963    50A     -0.078833
      51A     -0.011273    52A      0.016375    53A      0.016658
      54A      0.048069    55A      0.048125    56A      0.049605
      57A      0.049680    58A      0.061850    59A      0.080609
      60A      0.092629    61A      0.092789    62A      0.110140
      63A      0.112916    64A      0.131637    65A      0.131744
      66A      0.136242    67A      0.136295    68A      0.136436
      69A      0.136457    70A      0.162062    71A      0.162187
      72A      0.185730    73A      0.221944    74A      0.222122
      75A      0.258425    76A      0.258435    77A      0.267588
      78A      0.272540    79A      0.273078    80A      0.316791
      81A      0.316796    82A      0.324985    83A      0.325008
      84A      0.345099    85A      0.345104    86A      0.364162
      87A      0.364944    88A      0.373645    89A      0.379574
      90A      0.379664    91A      0.388471    92A      0.463382
      93A      0.463572    94A      0.485674    95A      0.485687
      96A      0.500643    97A      0.563031    98A      0.581652
      99A      0.602709   100A      0.602710   101A      0.608459
     102A      0.608461   103A      0.633742   104A      0.634601
     105A      0.691951   106A      0.692125   107A      0.696398
     108A      0.696518   109A      0.728513   110A      0.728520
     111A      0.728803   112A      0.728855   113A      0.733131
     114A      0.734197   115A      0.734259   116A      0.743313
     117A      0.743353   118A      0.776396   119A      0.776465
     120A      0.817346   121A      0.817363   122A      0.818197
     123A      0.818979   124A      0.819001   125A      0.820163
     126A      0.846806   127A      0.894309   128A      0.894322
     129A      0.963160   130A      0.987941   131A      1.004119
     132A      1.004154   133A      1.007688   134A      1.007703
     135A      1.059910   136A      1.060011   137A      1.060451
     138A      1.060554   139A      1.145515   140A      1.145601
     141A      1.149356   142A      1.149478   143A      1.170728
     144A      1.170746   145A      1.171224   146A      1.171229
     147A      1.355523   148A      1.363054   149A      1.425758
     150A      1.426352   151A      1.434775   152A      1.434782
     153A      1.445056   154A      1.445154   155A      1.496253
     156A      1.496626   157A      1.534739   158A      1.566881
     159A      1.603583   160A      1.603647   161A      1.603737
     162A      1.603781   163A      1.678610   164A      1.678696
     165A      1.691360   166A      1.691395   167A      1.723235
     168A      1.723244   169A      1.723791   170A      1.723800
     171A      1.773849   172A      1.786285   173A      1.800662
     174A      1.800709   175A      1.805227   176A      1.805238
     177A      1.838588   178A      1.875844   179A      1.875901
     180A      1.877826   181A      1.886058   182A      1.886067
     183A      1.908320   184A      1.908410   185A      1.919383
     186A      1.919421   187A      1.985386   188A      1.985401
     189A      1.996445   190A      1.996504   191A      1.997230
     192A      1.997289   193A      2.126859   194A      2.126960
     195A      2.139210   196A      2.139303   197A      2.171427
     198A      2.171437   199A      2.181084   200A      2.181098
     201A      2.184764   202A      2.184824   203A      2.301291
     204A      2.301385   205A      2.301539   206A      2.301613
     207A      2.540353   208A      2.540451   209A      2.544853
     210A      2.545005   211A      2.575279   212A      2.577174
     213A      2.687642   214A      2.687726   215A      2.696385
     216A      2.696438   217A      2.782994   218A      2.783040
     219A      2.789014   220A      2.789061   221A      2.798930
     222A      2.798941   223A      3.430369   224A      3.430482
     225A      3.434364   226A      3.434436

    Beta Occupied:

       1A    -49.212370     2A    -49.212353     3A    -11.376298
       4A    -11.376282     5A    -11.375671     6A    -11.375665
       7A    -11.375658     8A    -11.375655     9A    -11.374603
      10A    -11.374575    11A    -11.374512    12A    -11.374507
      13A     -3.951617    14A     -3.951586    15A     -2.473560
      16A     -2.473557    17A     -2.473538    18A     -2.473537
      19A     -2.471959    20A     -2.471777    21A     -1.300698
      22A     -1.300685    23A     -1.090081    24A     -1.090079
      25A     -1.090060    26A     -1.090059    27A     -0.867261
      28A     -0.867243    29A     -0.867219    30A     -0.867213
      31A     -0.830988    32A     -0.830967    33A     -0.679592
      34A     -0.679589    35A     -0.679528    36A     -0.679525
      37A     -0.674050    38A     -0.673192    39A     -0.652737
      40A     -0.652705    41A     -0.652689    42A     -0.652682
      43A     -0.457664    44A     -0.457663    45A     -0.456410
      46A     -0.456408

    Beta Virtual:

      47A     -0.176814    48A     -0.072028    49A     -0.071851
      50A     -0.044473    51A      0.020348    52A      0.021076
      53A      0.028231    54A      0.048602    55A      0.048698
      56A      0.049836    57A      0.049952    58A      0.066252
      59A      0.090865    60A      0.108207    61A      0.109776
      62A      0.112668    63A      0.123175    64A      0.136258
      65A      0.136314    66A      0.136450    67A      0.136463
      68A      0.139307    69A      0.139434    70A      0.171861
      71A      0.171912    72A      0.201197    73A      0.227092
      74A      0.227188    75A      0.258476    76A      0.258494
      77A      0.273499    78A      0.273698    79A      0.286996
      80A      0.320570    81A      0.320578    82A      0.325500
      83A      0.325513    84A      0.352012    85A      0.352018
      86A      0.377737    87A      0.380289    88A      0.380600
      89A      0.386432    90A      0.386559    91A      0.405998
      92A      0.471712    93A      0.471887    94A      0.485669
      95A      0.485681    96A      0.511965    97A      0.563548
      98A      0.584978    99A      0.603536   100A      0.603545
     101A      0.609223   102A      0.609237   103A      0.636346
     104A      0.637341   105A      0.694562   106A      0.694719
     107A      0.696769   108A      0.696889   109A      0.728932
     110A      0.728971   111A      0.729994   112A      0.730044
     113A      0.734539   114A      0.734581   115A      0.737957
     116A      0.744388   117A      0.744419   118A      0.778146
     119A      0.778228   120A      0.817520   121A      0.817542
     122A      0.818672   123A      0.819148   124A      0.819175
     125A      0.820328   126A      0.849397   127A      0.894314
     128A      0.894327   129A      0.965015   130A      0.992659
     131A      1.004289   132A      1.004329   133A      1.007813
     134A      1.007827   135A      1.059884   136A      1.059969
     137A      1.060391   138A      1.060482   139A      1.145871
     140A      1.145961   141A      1.149642   142A      1.149768
     143A      1.170781   144A      1.170799   145A      1.171261
     146A      1.171267   147A      1.355911   148A      1.363365
     149A      1.428390   150A      1.428989   151A      1.435337
     152A      1.435347   153A      1.445425   154A      1.445524
     155A      1.498169   156A      1.498534   157A      1.535021
     158A      1.567099   159A      1.603604   160A      1.603665
     161A      1.603748   162A      1.603790   163A      1.679148
     164A      1.679234   165A      1.691770   166A      1.691805
     167A      1.723242   168A      1.723251   169A      1.723801
     170A      1.723810   171A      1.773932   172A      1.786410
     173A      1.800644   174A      1.800691   175A      1.805204
     176A      1.805214   177A      1.839752   178A      1.876046
     179A      1.876051   180A      1.878487   181A      1.886127
     182A      1.886135   183A      1.908454   184A      1.908546
     185A      1.919588   186A      1.919625   187A      1.985404
     188A      1.985419   189A      1.996483   190A      1.996543
     191A      1.997262   192A      1.997322   193A      2.127078
     194A      2.127180   195A      2.139383   196A      2.139475
     197A      2.171338   198A      2.171347   199A      2.181187
     200A      2.181196   201A      2.184834   202A      2.184888
     203A      2.301233   204A      2.301336   205A      2.301511
     206A      2.301593   207A      2.540462   208A      2.540558
     209A      2.544923   210A      2.545072   211A      2.575375
     212A      2.577199   213A      2.687786   214A      2.687870
     215A      2.696495   216A      2.696547   217A      2.783085
     218A      2.783132   219A      2.789080   220A      2.789126
     221A      2.798932   222A      2.798944   223A      3.430453
     224A      3.430569   225A      3.434422   226A      3.434497

    Final Occupation by Irrep:
              A
    DOCC [    46 ]
    SOCC [     1 ]
    NA   [    47 ]
    NB   [    46 ]

  @DF-UHF Final Energy:  -783.55047824079031

   => Energetics <=

    Nuclear Repulsion Energy =            676.1920120620746957
    One-Electron Energy =               -2407.8971064015995580
    Two-Electron Energy =                 948.1546160987345502
    Total Energy =                       -783.5504782407901985

  UHF NO Occupations:
  HONO-2 :   45  A 1.9996093
  HONO-1 :   46  A 1.9996081
  HONO-0 :   47  A 1.0000000
  LUNO+0 :   48  A 0.0003919
  LUNO+1 :   49  A 0.0003907
  LUNO+2 :   50  A 0.0000612
  LUNO+3 :   51  A 0.0000429

Computation Completed

Properties will be evaluated at   0.000000,   0.000000,   0.000000 [a0]

Properties computed using the SCF density matrix

 Multipole Moments:

 ------------------------------------------------------------------------------------
     Multipole            Electronic (a.u.)      Nuclear  (a.u.)        Total (a.u.)
 ------------------------------------------------------------------------------------

 L = 1.  Multiply by 2.5417464519 to convert [e a0] to [Debye]
 Dipole X            :          0.0003639            0.0000101            0.0003740
 Dipole Y            :         -0.0951043            0.0590992           -0.0360051
 Dipole Z            :          0.0539153           -0.0334937            0.0204216
 Magnitude           :                                                    0.0413951

 ------------------------------------------------------------------------------------

*** tstop() called on n054 at Fri Sep 29 15:52:29 2023
Module time:
	user time   =      74.97 seconds =       1.25 minutes
	system time =       1.84 seconds =       0.03 minutes
	total time  =         15 seconds =       0.25 minutes
Total time:
	user time   =  575868.57 seconds =    9597.81 minutes
	system time =   19849.48 seconds =     330.82 minutes
	total time  =     112028 seconds =    1867.13 minutes
  Constructing Basis Sets for DFOCC...

   => Loading Basis Set <=

    Name: (CC-PVDZ AUX)
    Role: JKFIT
    Keyword: DF_BASIS_SCF
    atoms 1-10  entry C          line   121 file /opt/psi/4/1.9a/share/psi4/basis/cc-pvdz-jkfit.gbs
    atoms 11-20 entry H          line    51 file /opt/psi/4/1.9a/share/psi4/basis/cc-pvdz-jkfit.gbs
    atoms 21-22 entry MG         line   576 file /opt/psi/4/1.9a/share/psi4/basis/def2-universal-jkfit.gbs

   => Loading Basis Set <=

    Name: (CC-PVDZ AUX)
    Role: RIFIT
    Keyword: DF_BASIS_CC
    atoms 1-10  entry C          line   159 file /opt/psi/4/1.9a/share/psi4/basis/cc-pvdz-ri.gbs
    atoms 11-20 entry H          line    19 file /opt/psi/4/1.9a/share/psi4/basis/cc-pvdz-ri.gbs
    atoms 21-22 entry MG         line   399 file /opt/psi/4/1.9a/share/psi4/basis/cc-pvdz-ri.gbs

*** tstart() called on n054
*** at Fri Sep 29 15:52:29 2023

  Module DFOCC Options:
  ----------------------------------------------------------------------------
  ACTIVE                        => (empty)
  BASIS_RELATIVISTIC            => (empty)
  BENCH                         => (empty)
  CC_DIIS_MAX_VECS              => (empty)
  CC_DIIS_MIN_VECS              => (empty)
  CC_LAMBDA                     => (empty)
  CC_MAXITER                    => (empty)
  CC_TYPE                       => DF              !
  CHOLESKY                      => (empty)
  CHOLESKY_TOLERANCE            => (empty)
  CI_TYPE                       => (empty)
  COMPUT_S2                     => (empty)
  CUBEPROP_BASIS_FUNCTIONS      => (empty)
  CUBEPROP_FILEPATH             => (empty)
  CUBEPROP_ISOCONTOUR_THRESHOLD => (empty)
  CUBEPROP_ORBITALS             => (empty)
  CUBEPROP_TASKS                => (empty)
  CUBIC_BASIS_TOLERANCE         => (empty)
  CUBIC_BLOCK_MAX_POINTS        => (empty)
  CUBIC_GRID_OVERAGE            => (empty)
  CUBIC_GRID_SPACING            => (empty)
  CUTOFF                        => (empty)
  DDX                           => (empty)
  DEBUG                         => (empty)
  DERTYPE                       => FIRST           !
  DF_BASIS_CC                   => (empty)
  DIE_IF_NOT_CONVERGED          => (empty)
  DKH_ORDER                     => (empty)
  DOCC                          => (empty)
  DO_DIIS                       => (empty)
  DO_LEVEL_SHIFT                => (empty)
  DO_SCS                        => FALSE           !
  DO_SOS                        => FALSE           !
  E3_SCALE                      => (empty)
  EKT_IP                        => (empty)
  EXTERNAL_POTENTIAL_SYMMETRY   => (empty)
  E_CONVERGENCE                 => 1e-08           !
  FREEZE_CORE                   => (empty)
  FREEZE_CORE_POLICY            => (empty)
  FROZEN_DOCC                   => (empty)
  FROZEN_UOCC                   => (empty)
  HESS_TYPE                     => (empty)
  INTEGRAL_CUTOFF               => (empty)
  INTEGRAL_PACKAGE              => (empty)
  LEVEL_SHIFT                   => (empty)
  LINEQ_SOLVER                  => (empty)
  LITERAL_CFOUR                 => (empty)
  MAT_NUM_COLUMN_PRINT          => (empty)
  MAX_MOGRAD_CONVERGENCE        => (empty)
  MAX_RADIAL_MOMENT             => (empty)
  MBIS_D_CONVERGENCE            => (empty)
  MBIS_MAXITER                  => (empty)
  MBIS_PRUNING_SCHEME           => (empty)
  MBIS_RADIAL_POINTS            => (empty)
  MBIS_SPHERICAL_POINTS         => (empty)
  MOLDEN_WITH_VIRTUAL           => (empty)
  MOLDEN_WRITE                  => (empty)
  MO_DIIS_NUM_VECS              => (empty)
  MO_MAXITER                    => (empty)
  MO_STEP_MAX                   => (empty)
  MP2_AMP_TYPE                  => (empty)
  MP2_OS_SCALE                  => (empty)
  MP2_SOS_SCALE                 => (empty)
  MP2_SOS_SCALE2                => (empty)
  MP2_SS_SCALE                  => (empty)
  MP2_TYPE                      => (empty)
  MP_TYPE                       => (empty)
  NAT_ORBS                      => FALSE           !
  NUM_FROZEN_DOCC               => (empty)
  NUM_FROZEN_UOCC               => (empty)
  NUM_GPUS                      => (empty)
  OCC_ORBS_PRINT                => (empty)
  OEPROP                        => (empty)
  OO_SCALE                      => (empty)
  OPT_METHOD                    => (empty)
  ORB_OPT                       => FALSE           !
  ORB_RESP_SOLVER               => (empty)
  ORTH_TYPE                     => (empty)
  PARENT_SYMMETRY               => (empty)
  PCG_BETA_TYPE                 => (empty)
  PCG_CONVERGENCE               => (empty)
  PCG_MAXITER                   => (empty)
  PCM                           => (empty)
  PE                            => (empty)
  PPL_TYPE                      => (empty)
  PRINT                         => 2               !
  PRINT_NOONS                   => (empty)
  PROPERTIES                    => (empty)
  PROPERTIES_ORIGIN             => (empty)
  PUREAM                        => (empty)
  QCHF                          => (empty)
  QC_MODULE                     => (empty)
  RAS1                          => (empty)
  RAS2                          => (empty)
  RAS3                          => (empty)
  RAS4                          => (empty)
  READ_SCF_3INDEX               => (empty)
  REGULARIZATION                => (empty)
  REG_PARAM                     => (empty)
  RELATIVISTIC                  => (empty)
  REMP_A                        => (empty)
  RESTRICTED_DOCC               => (empty)
  RESTRICTED_UOCC               => (empty)
  RMS_MOGRAD_CONVERGENCE        => (empty)
  R_CONVERGENCE                 => (empty)
  SCF_TYPE                      => DISK_DF         !
  SCREENING                     => (empty)
  SCS_TYPE                      => (empty)
  SOCC                          => (empty)
  SOS_TYPE                      => (empty)
  TRIPLES_IABC_TYPE             => (empty)
  WFN                           => (empty)
  WFN_TYPE                      => DF-CCSD         !
  WRITER_FILE_LABEL             => (empty)

	Warning: cc_lambda option is changed to TRUE
	For this residual convergence, default PCG convergence is:     1.00e-07
	For this energy convergence, default residual convergence is:     3.16e-07

 ==============================================================================
 ==============================================================================
 ==============================================================================

                       DF-CCSD
              Program Written by Ugur Bozkaya, Asli Unal & Yavuz Alagoz
              Latest Revision Sep 9, 2020

 ==============================================================================
 ==============================================================================
 ==============================================================================

	MO spaces...

	 FC   AOCC   BOCC  AVIR   BVIR   FV
	------------------------------------------
	  0    47    46   179    180     0

	Number of basis functions in the DF-CC basis: 852
	Reading DF integrals from disk ...
	Number of basis functions in the DF-HF basis: 1154

	Available memory                      :  22888.18 MB
	Minimum required memory for amplitudes:   1619.99 MB

	Computing DF-MP2 energy ...
	=======================================================================
	Nuclear Repulsion Energy (a.u.)    :   676.19201206207470
	DF-HF Energy (a.u.)                :  -783.55047824079031

	DF-MP2 Total Energy (a.u.)         :  -784.96736010495727
    Molecular point group: c1

  -Total gradient:
     Atom            X                  Y                   Z
    ------   -----------------  -----------------  -----------------
       1        0.000024880814    -0.000001069521    -0.000002968781
       2        0.000020408374     0.000005410726    -0.000031145151
       3        0.000012709323     0.000033478547    -0.000033602151
       4        0.000012546104     0.000040027906    -0.000017691777
       5        0.000017873823     0.000039299868     0.000006196801
       6       -0.000038313538    -0.000024398381     0.000014643795
       7       -0.000025910280    -0.000022977572    -0.000007901658
       8       -0.000001731151     0.000000716687    -0.000017501507
       9       -0.000000121084     0.000014683995     0.000008497119
      10       -0.000021587676     0.000007583250     0.000026946939
      11       -0.000026850362     0.000002328405    -0.000000177565
      12       -0.000025364281     0.000000088778     0.000003488664
      13       -0.000021475234    -0.000002937624     0.000001460137
      14       -0.000021359947    -0.000002099556     0.000001786625
      15       -0.000025025053    -0.000005194680    -0.000000676936
      16        0.000024656923     0.000002203740    -0.000000284459
      17        0.000024721248     0.000000037989     0.000003486135
      18        0.000023068445    -0.000002355633     0.000001784049
      19        0.000022921427    -0.000002262311     0.000000785117
      20        0.000024360198    -0.000005093677    -0.000000709409
      21        0.000049643316    -0.000209851771     0.000145499700
      22       -0.000050051390     0.000132380836    -0.000101915689

    Final optimized geometry and variables:
    Molecular point group: c1

    Geometry (in Angstrom), charge = 1, multiplicity = 2:

    C            3.520041068328     0.951059360315    -0.691822067774
    C            3.528728753839     0.950704932114     0.744654253057
    C            3.544956838476    -0.415696912437     1.188260282179
    C            3.546289642468    -1.259843200765     0.025534974539
    C            3.530882127737    -0.414890796740    -1.136344799375
    C           -3.518678628060     1.038091405742    -0.750586280552
    C           -3.527294248607     1.037643816545     0.686117211632
    C           -3.545431503095    -0.328720535312     1.129505140694
    C           -3.548022926297    -1.172745806222    -0.032951956157
    C           -3.531486413820    -0.328129837606    -1.194958243308
    H            3.565260746902     1.834123639854    -1.332859425744
    H            3.582220754432     1.833275119523     1.385741839283
    H            3.613851495814    -0.752495458572     2.224900085293
    H            3.616403923913    -2.349744510872     0.024827953398
    H            3.586347444264    -0.751098192775    -2.173974070021
    H           -3.563785821796     1.921161995048    -1.391637753993
    H           -3.579842027907     1.920379685330     1.327059285167
    H           -3.613842679593    -0.665313934803     2.166235247668
    H           -3.618776977013    -2.262597746786    -0.033694042806
    H           -3.587826179556    -0.664175687211    -2.232595528574
    MG           1.597643220767    -0.059774829107     0.039698304929
    MG          -1.597636020223     0.028351868410    -0.021879870023

*** Psi4 exiting successfully. Buy a developer a beer!
