                               Psi4 1.9a1.dev12

  ==> Input File <==

--------------------------------------------------------------------------
import math

memory 24 GB
set reference uhf

molecule becp {
    1 2
    symmetry c1
C      3.44218    0.97477   -0.72451
C      3.44695    0.97174    0.70595
C      3.44384   -0.38965    1.14512
C      3.43715   -1.22800   -0.01392
C      3.43612   -0.38474   -1.16941
C     -3.44384    0.39044   -1.14483
C     -3.43714    1.22879    0.01421
C     -3.43612    0.38554    1.16971
C     -3.44218   -0.97398    0.72480
C     -3.44695   -0.97095   -0.70566
H      3.47296    1.85929   -1.36448
H      3.48201    1.85354    1.34944
H      3.47611   -0.72932    2.18265
H      3.46341   -2.31987   -0.01632
H      3.46146   -0.72002   -2.20856
H     -3.47610    0.73011   -2.18235
H     -3.46340    2.32066    0.01661
H     -3.46146    0.72081    2.20885
H     -3.47295   -1.85850    1.36477
H     -3.48200   -1.85275   -1.34915
Mg     1.39045   -0.00428   -0.00450
Mg    -1.39045    0.00507    0.00479

}

set CC_TYPE DF
set CACHELEVEL 1
set PRINT 2

set optking {
    ranged_dihedral = ("
        1 21 22 6 15 21
    ")
}

E, wfn = optimize("ccsd/cc-pVDZ", return_wfn = True)

becp.save_xyz_file("out/magnesium/dimagnesocene+_d5.xyz", True)

wfn.to_file("out/magnesium/dimagnesocene+_d5.wf")
fchk(wfn, "out/magnesium/dimagnesocene+_d5.fchk")

fstr = ""
with open("out/magnesium/dimagnesocene+_d5.xyz", "r") as fp :
    for line in fp :
        newline = line[0]
        for i in range(1, len(line)) :
            if line[i - 1].isupper() and line[i].isupper() :
                newline += line[i].lower()
            else :
                newline += line[i]
        fstr += newline

with open("out/magnesium/dimagnesocene+_d5.xyz", "w") as fp :
    print(fstr, file = fp)

--------------------------------------------------------------------------

    Molecular point group: c1
  Charge       = 1
  Multiplicity = 2
  @DF-UHF Final Energy:  -783.53705054859643
    Total Energy =                       -783.5370505485964259
 Dipole X            :         -0.0000281            0.0000290            0.0000010
 Dipole Y            :          0.0000025           -0.0000063           -0.0000039
 Dipole Z            :         -0.0000075            0.0000025           -0.0000050
 Magnitude           :                                                    0.0000064
	DF-MP2 Total Energy (a.u.)         :  -784.95284534349901
    Molecular point group: c1
  @DF-UHF Final Energy:  -783.54469847280825
    Total Energy =                       -783.5446984728082498
	DF-MP2 Total Energy (a.u.)         :  -784.96094676535904
  @DF-UHF Final Energy:  -783.54970880792064
    Total Energy =                       -783.5497088079204104
	DF-MP2 Total Energy (a.u.)         :  -784.96683680710339
  @DF-UHF Final Energy:  -783.55049279202467
    Total Energy =                       -783.5504927920245564
	DF-MP2 Total Energy (a.u.)         :  -784.96715636856572
  @DF-UHF Final Energy:  -783.55058582359300
    Total Energy =                       -783.5505858235928827
	DF-MP2 Total Energy (a.u.)         :  -784.96722759532724
  @DF-UHF Final Energy:  -783.54969048044768
    Total Energy =                       -783.5496904804476799
	DF-MP2 Total Energy (a.u.)         :  -784.96655666586514
  @DF-UHF Final Energy:  -783.55030450581182
    Total Energy =                       -783.5503045058119369
	DF-MP2 Total Energy (a.u.)         :  -784.96718721572131
  @DF-UHF Final Energy:  -783.54912144498473
    Total Energy =                       -783.5491214449848485
	DF-MP2 Total Energy (a.u.)         :  -784.96671105651342
  @DF-UHF Final Energy:  -783.54986723257105
    Total Energy =                       -783.5498672325711595
	DF-MP2 Total Energy (a.u.)         :  -784.96709919120406
  @DF-UHF Final Energy:  -783.55029913061412
    Total Energy =                       -783.5502991306142349
	DF-MP2 Total Energy (a.u.)         :  -784.96726383708562
  @DF-UHF Final Energy:  -783.55006419722542
    Total Energy =                       -783.5500641972255380
	DF-MP2 Total Energy (a.u.)         :  -784.96725598378737
  @DF-UHF Final Energy:  -783.55046013480080
    Total Energy =                       -783.5504601348009146
	DF-MP2 Total Energy (a.u.)         :  -784.96732399856137
  @DF-UHF Final Energy:  -783.55040787329222
    Total Energy =                       -783.5504078732921016
	DF-MP2 Total Energy (a.u.)         :  -784.96734158326660
  @DF-UHF Final Energy:  -783.55048763253194
    Total Energy =                       -783.5504876325320538
	DF-MP2 Total Energy (a.u.)         :  -784.96734464622193
  @DF-UHF Final Energy:  -783.55046803328707
    Total Energy =                       -783.5504680332871885
	DF-MP2 Total Energy (a.u.)         :  -784.96734734955817
  Charge       = 1
  Multiplicity = 2

    Orbital Energies [Eh]
    ---------------------

    Alpha Occupied:

       1A    -49.214669     2A    -49.214668     3A    -11.376247
       4A    -11.376247     5A    -11.375626     6A    -11.375626
       7A    -11.375614     8A    -11.375614     9A    -11.374538
      10A    -11.374538    11A    -11.374474    12A    -11.374474
      13A     -3.956534    14A     -3.956530    15A     -2.478771
      16A     -2.478332    17A     -2.475620    18A     -2.475620
      19A     -2.475543    20A     -2.475542    21A     -1.300891
      22A     -1.300871    23A     -1.090045    24A     -1.090041
      25A     -1.089969    26A     -1.089966    27A     -0.867196
      28A     -0.867194    29A     -0.867144    30A     -0.867142
      31A     -0.831000    32A     -0.830986    33A     -0.680609
      34A     -0.679611    35A     -0.679586    36A     -0.679535
      37A     -0.679526    38A     -0.674790    39A     -0.652755
      40A     -0.652755    41A     -0.652625    42A     -0.652625
      43A     -0.510655    44A     -0.458349    45A     -0.458345
      46A     -0.456072    47A     -0.456047

    Alpha Virtual:

      48A     -0.101520    49A     -0.100968    50A     -0.078589
      51A     -0.011538    52A      0.016291    53A      0.016805
      54A      0.048093    55A      0.048242    56A      0.049558
      57A      0.049763    58A      0.061796    59A      0.080587
      60A      0.092509    61A      0.092794    62A      0.110551
      63A      0.112860    64A      0.131572    65A      0.131706
      66A      0.136243    67A      0.136327    68A      0.136471
      69A      0.136542    70A      0.162031    71A      0.162236
      72A      0.185633    73A      0.221568    74A      0.222002
      75A      0.258481    76A      0.258503    77A      0.267243
      78A      0.272519    79A      0.273488    80A      0.316807
      81A      0.316899    82A      0.324952    83A      0.324984
      84A      0.345167    85A      0.345178    86A      0.363209
      87A      0.364570    88A      0.373600    89A      0.379816
      90A      0.379821    91A      0.388963    92A      0.463211
      93A      0.463563    94A      0.485733    95A      0.485735
      96A      0.500658    97A      0.563164    98A      0.581234
      99A      0.602727   100A      0.602754   101A      0.608411
     102A      0.608440   103A      0.633735   104A      0.635335
     105A      0.691566   106A      0.691960   107A      0.696425
     108A      0.696637   109A      0.728494   110A      0.728613
     111A      0.728644   112A      0.728802   113A      0.733190
     114A      0.734081   115A      0.734354   116A      0.743277
     117A      0.743375   118A      0.776293   119A      0.776402
     120A      0.817370   121A      0.817448   122A      0.818219
     123A      0.818951   124A      0.819034   125A      0.820251
     126A      0.846556   127A      0.894370   128A      0.894374
     129A      0.963282   130A      0.987418   131A      1.003935
     132A      1.004006   133A      1.007473   134A      1.007501
     135A      1.059765   136A      1.060057   137A      1.060247
     138A      1.060581   139A      1.145541   140A      1.145873
     141A      1.149285   142A      1.149747   143A      1.171068
     144A      1.171148   145A      1.171572   146A      1.171625
     147A      1.355678   148A      1.363064   149A      1.425603
     150A      1.426755   151A      1.434759   152A      1.434877
     153A      1.445035   154A      1.445263   155A      1.495540
     156A      1.496305   157A      1.534379   158A      1.566409
     159A      1.603712   160A      1.603718   161A      1.603846
     162A      1.603879   163A      1.678543   164A      1.678879
     165A      1.691186   166A      1.691316   167A      1.723154
     168A      1.723179   169A      1.723700   170A      1.723729
     171A      1.774041   172A      1.786322   173A      1.800758
     174A      1.800849   175A      1.805317   176A      1.805336
     177A      1.838591   178A      1.875734   179A      1.875995
     180A      1.877778   181A      1.886018   182A      1.886071
     183A      1.908366   184A      1.908553   185A      1.919367
     186A      1.919454   187A      1.985275   188A      1.985281
     189A      1.996413   190A      1.996693   191A      1.997173
     192A      1.997466   193A      2.127069   194A      2.127284
     195A      2.139253   196A      2.139438   197A      2.171650
     198A      2.171651   199A      2.181159   200A      2.181165
     201A      2.184677   202A      2.184870   203A      2.301271
     204A      2.301378   205A      2.301624   206A      2.301730
     207A      2.540281   208A      2.540767   209A      2.544648
     210A      2.545330   211A      2.575355   212A      2.577185
     213A      2.687750   214A      2.687882   215A      2.696353
     216A      2.696508   217A      2.783013   218A      2.783155
     219A      2.789023   220A      2.789056   221A      2.799043
     222A      2.799045   223A      3.430182   224A      3.430770
     225A      3.434177   226A      3.434622

    Beta Occupied:

       1A    -49.212468     2A    -49.212468     3A    -11.376253
       4A    -11.376253     5A    -11.375629     6A    -11.375629
       7A    -11.375617     8A    -11.375616     9A    -11.374556
      10A    -11.374556    11A    -11.374463    12A    -11.374463
      13A     -3.951689    14A     -3.951663    15A     -2.473633
      16A     -2.473630    17A     -2.473621    18A     -2.473618
      19A     -2.472030    20A     -2.471849    21A     -1.300669
      22A     -1.300663    23A     -1.090074    24A     -1.090071
      25A     -1.090001    26A     -1.089998    27A     -0.867204
      28A     -0.867202    29A     -0.867195    30A     -0.867193
      31A     -0.830959    32A     -0.830943    33A     -0.679570
      34A     -0.679556    35A     -0.679495    36A     -0.679482
      37A     -0.674020    38A     -0.673162    39A     -0.652727
      40A     -0.652726    41A     -0.652624    42A     -0.652624
      43A     -0.457619    44A     -0.457611    45A     -0.456362
      46A     -0.456358

    Beta Virtual:

      47A     -0.176837    48A     -0.072212    49A     -0.071857
      50A     -0.044319    51A      0.019639    52A      0.020999
      53A      0.028829    54A      0.048551    55A      0.048913
      56A      0.049695    57A      0.050110    58A      0.066210
      59A      0.090819    60A      0.107519    61A      0.109778
      62A      0.113706    63A      0.123113    64A      0.136250
      65A      0.136351    66A      0.136462    67A      0.136548
      68A      0.139248    69A      0.139418    70A      0.171822
      71A      0.171886    72A      0.201104    73A      0.226790
      74A      0.227082    75A      0.258533    76A      0.258555
      77A      0.273242    78A      0.273671    79A      0.287219
      80A      0.320576    81A      0.320681    82A      0.325488
      83A      0.325494    84A      0.352072    85A      0.352096
      86A      0.377996    87A      0.379022    88A      0.379933
      89A      0.386872    90A      0.387019    91A      0.406310
      92A      0.471565    93A      0.471886    94A      0.485727
      95A      0.485730    96A      0.511993    97A      0.563682
      98A      0.584457    99A      0.603556   100A      0.603585
     101A      0.609177   102A      0.609210   103A      0.636330
     104A      0.638190   105A      0.694195   106A      0.694561
     107A      0.696795   108A      0.697006   109A      0.728952
     110A      0.729145   111A      0.729748   112A      0.729934
     113A      0.734471   114A      0.734635   115A      0.737986
     116A      0.744347   117A      0.744438   118A      0.778036
     119A      0.778172   120A      0.817532   121A      0.817641
     122A      0.818704   123A      0.819107   124A      0.819221
     125A      0.820416   126A      0.849152   127A      0.894376
     128A      0.894380   129A      0.965130   130A      0.992112
     131A      1.004104   132A      1.004185   133A      1.007598
     134A      1.007625   135A      1.059760   136A      1.059981
     137A      1.060223   138A      1.060487   139A      1.145886
     140A      1.146242   141A      1.149561   142A      1.150046
     143A      1.171120   144A      1.171200   145A      1.171609
     146A      1.171664   147A      1.356067   148A      1.363376
     149A      1.428230   150A      1.429391   151A      1.435330
     152A      1.435439   153A      1.445409   154A      1.445638
     155A      1.497461   156A      1.498211   157A      1.534661
     158A      1.566627   159A      1.603733   160A      1.603739
     161A      1.603854   162A      1.603887   163A      1.679081
     164A      1.679415   165A      1.691597   166A      1.691726
     167A      1.723161   168A      1.723186   169A      1.723711
     170A      1.723740   171A      1.774123   172A      1.786446
     173A      1.800740   174A      1.800832   175A      1.805294
     176A      1.805312   177A      1.839751   178A      1.876020
     179A      1.876142   180A      1.878356   181A      1.886088
     182A      1.886138   183A      1.908500   184A      1.908691
     185A      1.919571   186A      1.919658   187A      1.985292
     188A      1.985298   189A      1.996449   190A      1.996735
     191A      1.997203   192A      1.997501   193A      2.127288
     194A      2.127504   195A      2.139428   196A      2.139611
     197A      2.171561   198A      2.171561   199A      2.181245
     200A      2.181279   201A      2.184759   202A      2.184924
     203A      2.301209   204A      2.301316   205A      2.301609
     206A      2.301714   207A      2.540395   208A      2.540869
     209A      2.544724   210A      2.545393   211A      2.575451
     212A      2.577211   213A      2.687894   214A      2.688026
     215A      2.696463   216A      2.696617   217A      2.783105
     218A      2.783247   219A      2.789090   220A      2.789121
     221A      2.799045   222A      2.799047   223A      3.430261
     224A      3.430863   225A      3.434228   226A      3.434690

    Final Occupation by Irrep:
              A
    DOCC [    46 ]
    SOCC [     1 ]
    NA   [    47 ]
    NB   [    46 ]

  @DF-UHF Final Energy:  -783.55048704155217

   => Energetics <=

    Nuclear Repulsion Energy =            676.1429853869680073
    One-Electron Energy =               -2407.7999784238700158
    Two-Electron Energy =                 948.1065059953498348
    Total Energy =                       -783.5504870415520600

  UHF NO Occupations:
  HONO-2 :   45  A 1.9996089
  HONO-1 :   46  A 1.9996066
  HONO-0 :   47  A 1.0000000
  LUNO+0 :   48  A 0.0003934
  LUNO+1 :   49  A 0.0003911
  LUNO+2 :   50  A 0.0000634
  LUNO+3 :   51  A 0.0000430

Computation Completed

Properties will be evaluated at   0.000000,   0.000000,   0.000000 [a0]

Properties computed using the SCF density matrix

 Multipole Moments:

 ------------------------------------------------------------------------------------
     Multipole            Electronic (a.u.)      Nuclear  (a.u.)        Total (a.u.)
 ------------------------------------------------------------------------------------

 L = 1.  Multiply by 2.5417464519 to convert [e a0] to [Debye]
 Dipole X            :          0.0000064           -0.0000040            0.0000025
 Dipole Y            :         -0.0052515            0.0032562           -0.0019953
 Dipole Z            :          0.0071911           -0.0044590            0.0027321
 Magnitude           :                                                    0.0033831

 ------------------------------------------------------------------------------------

*** tstop() called on n065 at Thu Nov 30 13:41:28 2023
Module time:
	user time   =      83.67 seconds =       1.39 minutes
	system time =       1.44 seconds =       0.02 minutes
	total time  =         13 seconds =       0.22 minutes
Total time:
	user time   =  928218.26 seconds =   15470.30 minutes
	system time =   33260.31 seconds =     554.34 minutes
	total time  =     182496 seconds =    3041.60 minutes
  Constructing Basis Sets for DFOCC...

   => Loading Basis Set <=

    Name: (CC-PVDZ AUX)
    Role: JKFIT
    Keyword: DF_BASIS_SCF
    atoms 1-10  entry C          line   121 file /opt/psi/4/1.9a/share/psi4/basis/cc-pvdz-jkfit.gbs
    atoms 11-20 entry H          line    51 file /opt/psi/4/1.9a/share/psi4/basis/cc-pvdz-jkfit.gbs
    atoms 21-22 entry MG         line   576 file /opt/psi/4/1.9a/share/psi4/basis/def2-universal-jkfit.gbs

   => Loading Basis Set <=

    Name: (CC-PVDZ AUX)
    Role: RIFIT
    Keyword: DF_BASIS_CC
    atoms 1-10  entry C          line   159 file /opt/psi/4/1.9a/share/psi4/basis/cc-pvdz-ri.gbs
    atoms 11-20 entry H          line    19 file /opt/psi/4/1.9a/share/psi4/basis/cc-pvdz-ri.gbs
    atoms 21-22 entry MG         line   399 file /opt/psi/4/1.9a/share/psi4/basis/cc-pvdz-ri.gbs

*** tstart() called on n065
*** at Thu Nov 30 13:41:29 2023

  Module DFOCC Options:
  ----------------------------------------------------------------------------
  ACTIVE                        => (empty)
  BASIS_RELATIVISTIC            => (empty)
  BENCH                         => (empty)
  CC_DIIS_MAX_VECS              => (empty)
  CC_DIIS_MIN_VECS              => (empty)
  CC_LAMBDA                     => (empty)
  CC_MAXITER                    => (empty)
  CC_TYPE                       => DF              !
  CHOLESKY                      => (empty)
  CHOLESKY_TOLERANCE            => (empty)
  CI_TYPE                       => (empty)
  COMPUT_S2                     => (empty)
  CUBEPROP_BASIS_FUNCTIONS      => (empty)
  CUBEPROP_FILEPATH             => (empty)
  CUBEPROP_ISOCONTOUR_THRESHOLD => (empty)
  CUBEPROP_ORBITALS             => (empty)
  CUBEPROP_TASKS                => (empty)
  CUBIC_BASIS_TOLERANCE         => (empty)
  CUBIC_BLOCK_MAX_POINTS        => (empty)
  CUBIC_GRID_OVERAGE            => (empty)
  CUBIC_GRID_SPACING            => (empty)
  CUTOFF                        => (empty)
  DDX                           => (empty)
  DEBUG                         => (empty)
  DERTYPE                       => FIRST           !
  DF_BASIS_CC                   => (empty)
  DIE_IF_NOT_CONVERGED          => (empty)
  DKH_ORDER                     => (empty)
  DOCC                          => (empty)
  DO_DIIS                       => (empty)
  DO_LEVEL_SHIFT                => (empty)
  DO_SCS                        => FALSE           !
  DO_SOS                        => FALSE           !
  E3_SCALE                      => (empty)
  EKT_IP                        => (empty)
  EXTERNAL_POTENTIAL_SYMMETRY   => (empty)
  E_CONVERGENCE                 => 1e-08           !
  FREEZE_CORE                   => (empty)
  FREEZE_CORE_POLICY            => (empty)
  FROZEN_DOCC                   => (empty)
  FROZEN_UOCC                   => (empty)
  HESS_TYPE                     => (empty)
  INTEGRAL_CUTOFF               => (empty)
  INTEGRAL_PACKAGE              => (empty)
  LEVEL_SHIFT                   => (empty)
  LINEQ_SOLVER                  => (empty)
  LITERAL_CFOUR                 => (empty)
  MAT_NUM_COLUMN_PRINT          => (empty)
  MAX_MOGRAD_CONVERGENCE        => (empty)
  MAX_RADIAL_MOMENT             => (empty)
  MBIS_D_CONVERGENCE            => (empty)
  MBIS_MAXITER                  => (empty)
  MBIS_PRUNING_SCHEME           => (empty)
  MBIS_RADIAL_POINTS            => (empty)
  MBIS_SPHERICAL_POINTS         => (empty)
  MOLDEN_WITH_VIRTUAL           => (empty)
  MOLDEN_WRITE                  => (empty)
  MO_DIIS_NUM_VECS              => (empty)
  MO_MAXITER                    => (empty)
  MO_STEP_MAX                   => (empty)
  MP2_AMP_TYPE                  => (empty)
  MP2_OS_SCALE                  => (empty)
  MP2_SOS_SCALE                 => (empty)
  MP2_SOS_SCALE2                => (empty)
  MP2_SS_SCALE                  => (empty)
  MP2_TYPE                      => (empty)
  MP_TYPE                       => (empty)
  NAT_ORBS                      => FALSE           !
  NUM_FROZEN_DOCC               => (empty)
  NUM_FROZEN_UOCC               => (empty)
  NUM_GPUS                      => (empty)
  OCC_ORBS_PRINT                => (empty)
  OEPROP                        => (empty)
  OO_SCALE                      => (empty)
  OPT_METHOD                    => (empty)
  ORB_OPT                       => FALSE           !
  ORB_RESP_SOLVER               => (empty)
  ORTH_TYPE                     => (empty)
  PARENT_SYMMETRY               => (empty)
  PCG_BETA_TYPE                 => (empty)
  PCG_CONVERGENCE               => (empty)
  PCG_MAXITER                   => (empty)
  PCM                           => (empty)
  PE                            => (empty)
  PPL_TYPE                      => (empty)
  PRINT                         => 2               !
  PRINT_NOONS                   => (empty)
  PROPERTIES                    => (empty)
  PROPERTIES_ORIGIN             => (empty)
  PUREAM                        => (empty)
  QCHF                          => (empty)
  QC_MODULE                     => (empty)
  RAS1                          => (empty)
  RAS2                          => (empty)
  RAS3                          => (empty)
  RAS4                          => (empty)
  READ_SCF_3INDEX               => (empty)
  REGULARIZATION                => (empty)
  REG_PARAM                     => (empty)
  RELATIVISTIC                  => (empty)
  REMP_A                        => (empty)
  RESTRICTED_DOCC               => (empty)
  RESTRICTED_UOCC               => (empty)
  RMS_MOGRAD_CONVERGENCE        => (empty)
  R_CONVERGENCE                 => (empty)
  SCF_TYPE                      => DISK_DF         !
  SCREENING                     => (empty)
  SCS_TYPE                      => (empty)
  SOCC                          => (empty)
  SOS_TYPE                      => (empty)
  TRIPLES_IABC_TYPE             => (empty)
  WFN                           => (empty)
  WFN_TYPE                      => DF-CCSD         !
  WRITER_FILE_LABEL             => (empty)

	Warning: cc_lambda option is changed to TRUE
	For this residual convergence, default PCG convergence is:     1.00e-07
	For this energy convergence, default residual convergence is:     3.16e-07

 ==============================================================================
 ==============================================================================
 ==============================================================================

                       DF-CCSD
              Program Written by Ugur Bozkaya, Asli Unal & Yavuz Alagoz
              Latest Revision Sep 9, 2020

 ==============================================================================
 ==============================================================================
 ==============================================================================

	MO spaces...

	 FC   AOCC   BOCC  AVIR   BVIR   FV
	------------------------------------------
	  0    47    46   179    180     0

	Number of basis functions in the DF-CC basis: 852
	Reading DF integrals from disk ...
	Number of basis functions in the DF-HF basis: 1154

	Available memory                      :  22888.18 MB
	Minimum required memory for amplitudes:   1619.99 MB

	Computing DF-MP2 energy ...
	=======================================================================
	Nuclear Repulsion Energy (a.u.)    :   676.14298538696801
	DF-HF Energy (a.u.)                :  -783.55048704155217

	DF-MP2 Total Energy (a.u.)         :  -784.96734729518164
    Molecular point group: c1

  -Total gradient:
     Atom            X                  Y                   Z
    ------   -----------------  -----------------  -----------------
       1        0.000030646098    -0.000023607994     0.000142901874
       2        0.000024733451     0.000000405509    -0.000249572250
       3        0.000035166393    -0.000188278994     0.000006438835
       4        0.000010889651     0.000131280303    -0.000027808722
       5        0.000019836973    -0.000101619996    -0.000019696088
       6       -0.000030477702    -0.000128808363     0.000065984044
       7       -0.000019755735     0.000049730779     0.000090769907
       8       -0.000011057474    -0.000013441657    -0.000133290258
       9       -0.000034994075     0.000051141157     0.000181072702
      10       -0.000025030725     0.000237473255    -0.000076303678
      11        0.000003437478     0.000014003508     0.000016609869
      12        0.000005495914     0.000002648803     0.000023188043
      13       -0.000009214681     0.000042291501    -0.000006967468
      14        0.000012351126    -0.000015419477     0.000030580889
      15       -0.000006219146     0.000031780344     0.000001725997
      16       -0.000003419596    -0.000020112079    -0.000008232011
      17        0.000006187587    -0.000011350591    -0.000029746094
      18       -0.000012300412    -0.000024433138     0.000023989680
      19        0.000009175067    -0.000006250051    -0.000042400461
      20       -0.000005474719    -0.000022901594     0.000004562307
      21       -0.000104009557     0.000246141810     0.000184476623
      22        0.000104034081    -0.000250673034    -0.000178283740

    Final optimized geometry and variables:
    Molecular point group: c1

    Geometry (in Angstrom), charge = 1, multiplicity = 2:

    C            3.540004784701     0.943727470877    -0.777313748172
    C            3.562398865715     1.019091090155     0.657064330169
    C            3.546800077679    -0.322177129146     1.172396461532
    C            3.514831450810    -1.225862584205     0.056226314138
    C            3.510526398352    -0.443789507403    -1.148619765040
    C           -3.541700526449     0.449455125382    -1.131735371401
    C           -3.511478075291     1.226277415617     0.076393044346
    C           -3.513725207033     0.317360124658     1.188676886604
    C           -3.545165304672    -1.021273978035     0.668507554735
    C           -3.562496429101    -0.939585400369    -0.766008690957
    H            3.603958846512     1.790240535883    -1.464425760027
    H            3.646996089707     1.932427001222     1.249952388410
    H            3.616824424221    -0.604846963182     2.224972318588
    H            3.555682078856    -2.315789067106     0.113108148802
    H            3.547296800246    -0.835273406634    -2.167495592028
    H           -3.607167021649     0.845594727870    -2.147405014753
    H           -3.549097778707     2.315976830532     0.138518382223
    H           -3.553587426815     0.595573616004     2.244068842792
    H           -3.613730636980    -1.937546049103     1.258817540233
    H           -3.647179628824    -1.782857280287    -1.454903988267
    MG           1.598115373477     0.030444522659     0.022646083778
    MG          -1.598113210871    -0.032203905165    -0.020236830269

*** Psi4 exiting successfully. Buy a developer a beer!
