                               Psi4 1.9a1.dev12

  ==> Input File <==

--------------------------------------------------------------------------
import math

memory 24 GB
set reference uhf

molecule becp {
    1 2
    symmetry c1
C      3.44218    0.97477   -0.72451
C      3.44695    0.97174    0.70595
C      3.44384   -0.38965    1.14512
C      3.43715   -1.22800   -0.01392
C      3.43612   -0.38474   -1.16941
C     -3.44384    0.39044   -1.14483
C     -3.43714    1.22879    0.01421
C     -3.43612    0.38554    1.16971
C     -3.44218   -0.97398    0.72480
C     -3.44695   -0.97095   -0.70566
H      3.47296    1.85929   -1.36448
H      3.48201    1.85354    1.34944
H      3.47611   -0.72932    2.18265
H      3.46341   -2.31987   -0.01632
H      3.46146   -0.72002   -2.20856
H     -3.47610    0.73011   -2.18235
H     -3.46340    2.32066    0.01661
H     -3.46146    0.72081    2.20885
H     -3.47295   -1.85850    1.36477
H     -3.48200   -1.85275   -1.34915
Mg     1.39045   -0.00428   -0.00450
Mg    -1.39045    0.00507    0.00479

}

set CC_TYPE DF
set CACHELEVEL 1
set PRINT 2
E, wfn = optimize("ccsd/cc-pVDZ", return_wfn = True)

becp.save_xyz_file("out/magnesium/dimagnesocene+_d5d.xyz", True)

wfn.to_file("out/magnesium/dimagnesocene+.wf")
fchk(wfn, "out/magnesium/dimagnesocene+.fchk")

fstr = ""
with open("out/magnesium/dimagnesocene+_d5d.xyz", "r") as fp :
    for line in fp :
        newline = line[0]
        for i in range(1, len(line)) :
            if line[i - 1].isupper() and line[i].isupper() :
                newline += line[i].lower()
            else :
                newline += line[i]
        fstr += newline

with open("out/magnesium/dimagnesocene+_d5d.xyz", "w") as fp :
    print(fstr, file = fp)

--------------------------------------------------------------------------

    Molecular point group: c1
  Charge       = 1
  Multiplicity = 2
  @DF-UHF Final Energy:  -783.53705055034197
    Total Energy =                       -783.5370505503420873
 Dipole X            :         -0.0000281            0.0000290            0.0000010
 Dipole Y            :          0.0000025           -0.0000063           -0.0000039
 Dipole Z            :         -0.0000075            0.0000025           -0.0000050
 Magnitude           :                                                    0.0000064
	DF-MP2 Total Energy (a.u.)         :  -784.95284534524615
    Molecular point group: c1
  @DF-UHF Final Energy:  -783.54537531274980
    Total Energy =                       -783.5453753127497976
	DF-MP2 Total Energy (a.u.)         :  -784.96170771226036
  @DF-UHF Final Energy:  -783.55012352971733
    Total Energy =                       -783.5501235297172116
	DF-MP2 Total Energy (a.u.)         :  -784.96656276263172
  @DF-UHF Final Energy:  -783.55059313784875
    Total Energy =                       -783.5505931378487503
	DF-MP2 Total Energy (a.u.)         :  -784.96734755026830
  @DF-UHF Final Energy:  -783.55051224732460
    Total Energy =                       -783.5505122473244910
	DF-MP2 Total Energy (a.u.)         :  -784.96736948267005
  @DF-UHF Final Energy:  -783.55049082987989
    Total Energy =                       -783.5504908298800046
	DF-MP2 Total Energy (a.u.)         :  -784.96737364694286
  Charge       = 1
  Multiplicity = 2

    Orbital Energies [Eh]
    ---------------------

    Alpha Occupied:

       1A    -49.214599     2A    -49.214598     3A    -11.376276
       4A    -11.376276     5A    -11.375653     6A    -11.375653
       7A    -11.375652     8A    -11.375652     9A    -11.374540
      10A    -11.374540    11A    -11.374540    12A    -11.374540
      13A     -3.956482    14A     -3.956479    15A     -2.478724
      16A     -2.478285    17A     -2.475568    18A     -2.475568
      19A     -2.475490    20A     -2.475490    21A     -1.300879
      22A     -1.300860    23A     -1.090022    24A     -1.090022
      25A     -1.090005    26A     -1.090005    27A     -0.867187
      28A     -0.867187    29A     -0.867184    30A     -0.867184
      31A     -0.831007    32A     -0.830992    33A     -0.680588
      34A     -0.679617    35A     -0.679617    36A     -0.679555
      37A     -0.679555    38A     -0.674791    39A     -0.652699
      40A     -0.652699    41A     -0.652699    42A     -0.652699
      43A     -0.510672    44A     -0.458365    45A     -0.458365
      46A     -0.456095    47A     -0.456095

    Alpha Virtual:

      48A     -0.100971    49A     -0.100971    50A     -0.079178
      51A     -0.011016    52A      0.016448    53A      0.016448
      54A      0.048063    55A      0.048063    56A      0.049624
      57A      0.049624    58A      0.061919    59A      0.080627
      60A      0.092807    61A      0.092807    62A      0.109931
      63A      0.112987    64A      0.131625    65A      0.131625
      66A      0.136347    67A      0.136347    68A      0.136426
      69A      0.136426    70A      0.162013    71A      0.162013
      72A      0.185640    73A      0.222101    74A      0.222101
      75A      0.258434    76A      0.258434    77A      0.267760
      78A      0.272579    79A      0.272579    80A      0.316765
      81A      0.316765    82A      0.324992    83A      0.324992
      84A      0.345087    85A      0.345087    86A      0.365248
      87A      0.365248    88A      0.373526    89A      0.379310
      90A      0.379310    91A      0.387609    92A      0.463644
      93A      0.463644    94A      0.485683    95A      0.485686
      96A      0.500555    97A      0.563006    98A      0.582337
      99A      0.602680   100A      0.602680   101A      0.608455
     102A      0.608455   103A      0.633696   104A      0.633696
     105A      0.692094   106A      0.692094   107A      0.696381
     108A      0.696381   109A      0.728550   110A      0.728550
     111A      0.728924   112A      0.728924   113A      0.732762
     114A      0.734249   115A      0.734249   116A      0.743272
     117A      0.743272   118A      0.776380   119A      0.776380
     120A      0.817339   121A      0.817339   122A      0.818252
     123A      0.818953   124A      0.818953   125A      0.820225
     126A      0.846904   127A      0.894311   128A      0.894316
     129A      0.963026   130A      0.988238   131A      1.003930
     132A      1.003930   133A      1.007522   134A      1.007522
     135A      1.059879   136A      1.059879   137A      1.060376
     138A      1.060376   139A      1.145630   140A      1.145630
     141A      1.149503   142A      1.149503   143A      1.171014
     144A      1.171014   145A      1.171514   146A      1.171514
     147A      1.355579   148A      1.363265   149A      1.425619
     150A      1.425619   151A      1.434865   152A      1.434865
     153A      1.445146   154A      1.445146   155A      1.496652
     156A      1.496652   157A      1.534458   158A      1.566765
     159A      1.603717   160A      1.603717   161A      1.603739
     162A      1.603739   163A      1.678528   164A      1.678528
     165A      1.691340   166A      1.691340   167A      1.723120
     168A      1.723120   169A      1.723674   170A      1.723674
     171A      1.773900   172A      1.786437   173A      1.800677
     174A      1.800677   175A      1.805273   176A      1.805273
     177A      1.838426   178A      1.875916   179A      1.875916
     180A      1.877737   181A      1.886049   182A      1.886049
     183A      1.908314   184A      1.908314   185A      1.919483
     186A      1.919483   187A      1.985253   188A      1.985261
     189A      1.996469   190A      1.996469   191A      1.997241
     192A      1.997241   193A      2.126969   194A      2.126969
     195A      2.139460   196A      2.139460   197A      2.171533
     198A      2.171533   199A      2.181082   200A      2.181082
     201A      2.184772   202A      2.184772   203A      2.301376
     204A      2.301376   205A      2.301494   206A      2.301494
     207A      2.540372   208A      2.540372   209A      2.544917
     210A      2.544917   211A      2.575252   212A      2.577222
     213A      2.687596   214A      2.687596   215A      2.696421
     216A      2.696421   217A      2.782911   218A      2.782911
     219A      2.789006   220A      2.789006   221A      2.798935
     222A      2.798936   223A      3.430324   224A      3.430324
     225A      3.434318   226A      3.434318

    Beta Occupied:

       1A    -49.212398     2A    -49.212398     3A    -11.376278
       4A    -11.376278     5A    -11.375657     6A    -11.375657
       7A    -11.375656     8A    -11.375656     9A    -11.374544
      10A    -11.374544    11A    -11.374544    12A    -11.374544
      13A     -3.951639    14A     -3.951613    15A     -2.473578
      16A     -2.473578    17A     -2.473566    18A     -2.473566
      19A     -2.471984    20A     -2.471803    21A     -1.300659
      22A     -1.300653    23A     -1.090053    24A     -1.090053
      25A     -1.090037    26A     -1.090037    27A     -0.867216
      28A     -0.867216    29A     -0.867214    30A     -0.867214
      31A     -0.830967    32A     -0.830950    33A     -0.679576
      34A     -0.679576    35A     -0.679512    36A     -0.679512
      37A     -0.674022    38A     -0.673166    39A     -0.652684
      40A     -0.652684    41A     -0.652684    42A     -0.652684
      43A     -0.457638    44A     -0.457638    45A     -0.456386
      46A     -0.456386

    Beta Virtual:

      47A     -0.176839    48A     -0.071857    49A     -0.071857
      50A     -0.044695    51A      0.021148    52A      0.021148
      53A      0.027482    54A      0.048631    55A      0.048631
      56A      0.049858    57A      0.049858    58A      0.066305
      59A      0.090889    60A      0.109788    61A      0.109788
      62A      0.110992    63A      0.123229    64A      0.136375
      65A      0.136375    66A      0.136442    67A      0.136442
      68A      0.139278    69A      0.139278    70A      0.171812
      71A      0.171812    72A      0.201111    73A      0.227163
      74A      0.227163    75A      0.258485    76A      0.258485
      77A      0.273736    78A      0.273736    79A      0.286502
      80A      0.320566    81A      0.320566    82A      0.325495
      83A      0.325495    84A      0.351979    85A      0.351979
      86A      0.377910    87A      0.381355    88A      0.381355
      89A      0.385764    90A      0.385764    91A      0.405341
      92A      0.471963    93A      0.471963    94A      0.485677
      95A      0.485680    96A      0.511878    97A      0.563530
      98A      0.585767    99A      0.603508   100A      0.603508
     101A      0.609222   102A      0.609222   103A      0.636297
     104A      0.636297   105A      0.694689   106A      0.694689
     107A      0.696753   108A      0.696753   109A      0.728972
     110A      0.728972   111A      0.730117   112A      0.730117
     113A      0.734581   114A      0.734581   115A      0.737631
     116A      0.744339   117A      0.744339   118A      0.778128
     119A      0.778128   120A      0.817514   121A      0.817514
     122A      0.818725   123A      0.819124   124A      0.819124
     125A      0.820389   126A      0.849507   127A      0.894316
     128A      0.894321   129A      0.964877   130A      0.992962
     131A      1.004099   132A      1.004099   133A      1.007646
     134A      1.007646   135A      1.059834   136A      1.059834
     137A      1.060321   138A      1.060321   139A      1.145986
     140A      1.145986   141A      1.149789   142A      1.149789
     143A      1.171066   144A      1.171066   145A      1.171551
     146A      1.171551   147A      1.355968   148A      1.363576
     149A      1.428257   150A      1.428257   151A      1.435426
     152A      1.435426   153A      1.445512   154A      1.445512
     155A      1.498564   156A      1.498564   157A      1.534740
     158A      1.566983   159A      1.603731   160A      1.603731
     161A      1.603754   162A      1.603754   163A      1.679064
     164A      1.679064   165A      1.691749   166A      1.691749
     167A      1.723127   168A      1.723127   169A      1.723685
     170A      1.723685   171A      1.773982   172A      1.786562
     173A      1.800659   174A      1.800659   175A      1.805250
     176A      1.805250   177A      1.839593   178A      1.876064
     179A      1.876064   180A      1.878454   181A      1.886116
     182A      1.886117   183A      1.908448   184A      1.908448
     185A      1.919687   186A      1.919687   187A      1.985271
     188A      1.985278   189A      1.996508   190A      1.996508
     191A      1.997273   192A      1.997273   193A      2.127189
     194A      2.127189   195A      2.139632   196A      2.139632
     197A      2.171443   198A      2.171444   199A      2.181181
     200A      2.181181   201A      2.184840   202A      2.184840
     203A      2.301337   204A      2.301337   205A      2.301454
     206A      2.301454   207A      2.540480   208A      2.540480
     209A      2.544986   210A      2.544986   211A      2.575348
     212A      2.577247   213A      2.687740   214A      2.687740
     215A      2.696530   216A      2.696530   217A      2.783002
     218A      2.783002   219A      2.789071   220A      2.789071
     221A      2.798938   222A      2.798938   223A      3.430410
     224A      3.430410   225A      3.434377   226A      3.434377

    Final Occupation by Irrep:
              A
    DOCC [    46 ]
    SOCC [     1 ]
    NA   [    47 ]
    NB   [    46 ]

  @DF-UHF Final Energy:  -783.55049539977995

   => Energetics <=

    Nuclear Repulsion Energy =            676.1168125846418206
    One-Electron Energy =               -2407.7474644079511563
    Two-Electron Energy =                 948.0801564235292744
    Total Energy =                       -783.5504953997800612

  UHF NO Occupations:
  HONO-2 :   45  A 1.9996096
  HONO-1 :   46  A 1.9996096
  HONO-0 :   47  A 1.0000000
  LUNO+0 :   48  A 0.0003904
  LUNO+1 :   49  A 0.0003904
  LUNO+2 :   50  A 0.0000586
  LUNO+3 :   51  A 0.0000428

Computation Completed

Properties will be evaluated at   0.000000,   0.000000,   0.000000 [a0]

Properties computed using the SCF density matrix

 Multipole Moments:

 ------------------------------------------------------------------------------------
     Multipole            Electronic (a.u.)      Nuclear  (a.u.)        Total (a.u.)
 ------------------------------------------------------------------------------------

 L = 1.  Multiply by 2.5417464519 to convert [e a0] to [Debye]
 Dipole X            :          0.0000001           -0.0000000            0.0000000
 Dipole Y            :         -0.0000058            0.0000035           -0.0000022
 Dipole Z            :         -0.0000011            0.0000007           -0.0000003
 Magnitude           :                                                    0.0000022

 ------------------------------------------------------------------------------------

*** tstop() called on n040 at Sat Oct  7 05:36:14 2023
Module time:
	user time   =      81.13 seconds =       1.35 minutes
	system time =       1.77 seconds =       0.03 minutes
	total time  =         13 seconds =       0.22 minutes
Total time:
	user time   =  574201.32 seconds =    9570.02 minutes
	system time =   10545.64 seconds =     175.76 minutes
	total time  =     123695 seconds =    2061.58 minutes
  Constructing Basis Sets for DFOCC...

   => Loading Basis Set <=

    Name: (CC-PVDZ AUX)
    Role: JKFIT
    Keyword: DF_BASIS_SCF
    atoms 1-10  entry C          line   121 file /opt/psi/4/1.9a/share/psi4/basis/cc-pvdz-jkfit.gbs
    atoms 11-20 entry H          line    51 file /opt/psi/4/1.9a/share/psi4/basis/cc-pvdz-jkfit.gbs
    atoms 21-22 entry MG         line   576 file /opt/psi/4/1.9a/share/psi4/basis/def2-universal-jkfit.gbs

   => Loading Basis Set <=

    Name: (CC-PVDZ AUX)
    Role: RIFIT
    Keyword: DF_BASIS_CC
    atoms 1-10  entry C          line   159 file /opt/psi/4/1.9a/share/psi4/basis/cc-pvdz-ri.gbs
    atoms 11-20 entry H          line    19 file /opt/psi/4/1.9a/share/psi4/basis/cc-pvdz-ri.gbs
    atoms 21-22 entry MG         line   399 file /opt/psi/4/1.9a/share/psi4/basis/cc-pvdz-ri.gbs

*** tstart() called on n040
*** at Sat Oct  7 05:36:15 2023

  Module DFOCC Options:
  ----------------------------------------------------------------------------
  ACTIVE                        => (empty)
  BASIS_RELATIVISTIC            => (empty)
  BENCH                         => (empty)
  CC_DIIS_MAX_VECS              => (empty)
  CC_DIIS_MIN_VECS              => (empty)
  CC_LAMBDA                     => (empty)
  CC_MAXITER                    => (empty)
  CC_TYPE                       => DF              !
  CHOLESKY                      => (empty)
  CHOLESKY_TOLERANCE            => (empty)
  CI_TYPE                       => (empty)
  COMPUT_S2                     => (empty)
  CUBEPROP_BASIS_FUNCTIONS      => (empty)
  CUBEPROP_FILEPATH             => (empty)
  CUBEPROP_ISOCONTOUR_THRESHOLD => (empty)
  CUBEPROP_ORBITALS             => (empty)
  CUBEPROP_TASKS                => (empty)
  CUBIC_BASIS_TOLERANCE         => (empty)
  CUBIC_BLOCK_MAX_POINTS        => (empty)
  CUBIC_GRID_OVERAGE            => (empty)
  CUBIC_GRID_SPACING            => (empty)
  CUTOFF                        => (empty)
  DDX                           => (empty)
  DEBUG                         => (empty)
  DERTYPE                       => FIRST           !
  DF_BASIS_CC                   => (empty)
  DIE_IF_NOT_CONVERGED          => (empty)
  DKH_ORDER                     => (empty)
  DOCC                          => (empty)
  DO_DIIS                       => (empty)
  DO_LEVEL_SHIFT                => (empty)
  DO_SCS                        => FALSE           !
  DO_SOS                        => FALSE           !
  E3_SCALE                      => (empty)
  EKT_IP                        => (empty)
  EXTERNAL_POTENTIAL_SYMMETRY   => (empty)
  E_CONVERGENCE                 => 1e-08           !
  FREEZE_CORE                   => (empty)
  FREEZE_CORE_POLICY            => (empty)
  FROZEN_DOCC                   => (empty)
  FROZEN_UOCC                   => (empty)
  HESS_TYPE                     => (empty)
  INTEGRAL_CUTOFF               => (empty)
  INTEGRAL_PACKAGE              => (empty)
  LEVEL_SHIFT                   => (empty)
  LINEQ_SOLVER                  => (empty)
  LITERAL_CFOUR                 => (empty)
  MAT_NUM_COLUMN_PRINT          => (empty)
  MAX_MOGRAD_CONVERGENCE        => (empty)
  MAX_RADIAL_MOMENT             => (empty)
  MBIS_D_CONVERGENCE            => (empty)
  MBIS_MAXITER                  => (empty)
  MBIS_PRUNING_SCHEME           => (empty)
  MBIS_RADIAL_POINTS            => (empty)
  MBIS_SPHERICAL_POINTS         => (empty)
  MOLDEN_WITH_VIRTUAL           => (empty)
  MOLDEN_WRITE                  => (empty)
  MO_DIIS_NUM_VECS              => (empty)
  MO_MAXITER                    => (empty)
  MO_STEP_MAX                   => (empty)
  MP2_AMP_TYPE                  => (empty)
  MP2_OS_SCALE                  => (empty)
  MP2_SOS_SCALE                 => (empty)
  MP2_SOS_SCALE2                => (empty)
  MP2_SS_SCALE                  => (empty)
  MP2_TYPE                      => (empty)
  MP_TYPE                       => (empty)
  NAT_ORBS                      => FALSE           !
  NUM_FROZEN_DOCC               => (empty)
  NUM_FROZEN_UOCC               => (empty)
  NUM_GPUS                      => (empty)
  OCC_ORBS_PRINT                => (empty)
  OEPROP                        => (empty)
  OO_SCALE                      => (empty)
  OPT_METHOD                    => (empty)
  ORB_OPT                       => FALSE           !
  ORB_RESP_SOLVER               => (empty)
  ORTH_TYPE                     => (empty)
  PARENT_SYMMETRY               => (empty)
  PCG_BETA_TYPE                 => (empty)
  PCG_CONVERGENCE               => (empty)
  PCG_MAXITER                   => (empty)
  PCM                           => (empty)
  PE                            => (empty)
  PPL_TYPE                      => (empty)
  PRINT                         => 2               !
  PRINT_NOONS                   => (empty)
  PROPERTIES                    => (empty)
  PROPERTIES_ORIGIN             => (empty)
  PUREAM                        => (empty)
  QCHF                          => (empty)
  QC_MODULE                     => (empty)
  RAS1                          => (empty)
  RAS2                          => (empty)
  RAS3                          => (empty)
  RAS4                          => (empty)
  READ_SCF_3INDEX               => (empty)
  REGULARIZATION                => (empty)
  REG_PARAM                     => (empty)
  RELATIVISTIC                  => (empty)
  REMP_A                        => (empty)
  RESTRICTED_DOCC               => (empty)
  RESTRICTED_UOCC               => (empty)
  RMS_MOGRAD_CONVERGENCE        => (empty)
  R_CONVERGENCE                 => (empty)
  SCF_TYPE                      => DISK_DF         !
  SCREENING                     => (empty)
  SCS_TYPE                      => (empty)
  SOCC                          => (empty)
  SOS_TYPE                      => (empty)
  TRIPLES_IABC_TYPE             => (empty)
  WFN                           => (empty)
  WFN_TYPE                      => DF-CCSD         !
  WRITER_FILE_LABEL             => (empty)

	Warning: cc_lambda option is changed to TRUE
	For this residual convergence, default PCG convergence is:     1.00e-07
	For this energy convergence, default residual convergence is:     3.16e-07

 ==============================================================================
 ==============================================================================
 ==============================================================================

                       DF-CCSD
              Program Written by Ugur Bozkaya, Asli Unal & Yavuz Alagoz
              Latest Revision Sep 9, 2020

 ==============================================================================
 ==============================================================================
 ==============================================================================

	MO spaces...

	 FC   AOCC   BOCC  AVIR   BVIR   FV
	------------------------------------------
	  0    47    46   179    180     0

	Number of basis functions in the DF-CC basis: 852
	Reading DF integrals from disk ...
	Number of basis functions in the DF-HF basis: 1154

	Available memory                      :  22888.18 MB
	Minimum required memory for amplitudes:   1619.99 MB

	Computing DF-MP2 energy ...
	=======================================================================
	Nuclear Repulsion Energy (a.u.)    :   676.11681258464182
	DF-HF Energy (a.u.)                :  -783.55049539977995

	DF-MP2 Total Energy (a.u.)         :  -784.96737425783147
    Molecular point group: c1

  -Total gradient:
     Atom            X                  Y                   Z
    ------   -----------------  -----------------  -----------------
       1        0.000006569213     0.000005667123    -0.000004150986
       2        0.000006598108     0.000005672221     0.000004123206
       3        0.000006577031    -0.000002226935     0.000006663547
       4        0.000006546866    -0.000007055921    -0.000000048520
       5        0.000006531667    -0.000002169559    -0.000006704789
       6       -0.000006581969     0.000002240944    -0.000006655753
       7       -0.000006529163     0.000007007345     0.000000029990
       8       -0.000006543283     0.000002217518     0.000006731582
       9       -0.000006573228    -0.000005693098     0.000004107088
      10       -0.000006597417    -0.000005668440    -0.000004089554
      11       -0.000000761063     0.000000128360    -0.000000088888
      12       -0.000000759413     0.000000127586     0.000000096428
      13       -0.000000760064    -0.000000041010     0.000000151891
      14       -0.000000761162    -0.000000155268     0.000000005158
      15       -0.000000763131    -0.000000047545    -0.000000145463
      16        0.000000762830     0.000000046193    -0.000000156197
      17        0.000000760816     0.000000160575    -0.000000001033
      18        0.000000758512     0.000000043507     0.000000151352
      19        0.000000759468    -0.000000128063     0.000000091954
      20        0.000000760764    -0.000000130957    -0.000000094871
      21       -0.000001436747     0.000000011718     0.000000012804
      22        0.000001441364    -0.000000006297    -0.000000028943

    Final optimized geometry and variables:
    Molecular point group: c1

    Geometry (in Angstrom), charge = 1, multiplicity = 2:

    C            3.536529087200     0.978331989094    -0.728062458191
    C            3.541320798187     0.975287880190     0.708600109191
    C            3.538197877417    -0.391999998967     1.149673475726
    C            3.531476124684    -1.233986228784    -0.014390762943
    C            3.530444724645    -0.387074478654    -1.174895364332
    C           -3.538197510122     0.391999471105    -1.149673759112
    C           -3.531474432800     1.233986872788     0.014389592621
    C           -3.530444101832     0.387076414067     1.174895120626
    C           -3.536530353680    -0.978330547275     0.728063605035
    C           -3.541322224606    -0.975287948241    -0.708598919106
    H            3.596536754384     1.861751476879    -1.367400399184
    H            3.605604383651     1.855990943971     1.351261490138
    H            3.599694738965    -0.731389946934     2.185924658459
    H            3.586974785903    -2.324718821258    -0.016886983653
    H            3.585022998820    -0.722069257322    -2.212962619995
    H           -3.599693992363     0.731388456083    -2.185925287013
    H           -3.586971621381     2.324719552921     0.016884692010
    H           -3.585021875462     0.722072313876     2.212962044203
    H           -3.596539164806    -1.861749274123     1.367402494970
    H           -3.605607059132    -1.855991632765    -1.351259330511
    MG           1.598682884730    -0.005375700468    -0.005340918145
    MG          -1.598682877112     0.005373826590     0.005340566278

*** Psi4 exiting successfully. Buy a developer a beer!
